660
	Energy:   12303.9177320
C        -11.37109        0.96383        4.75518
C        -12.82556        0.58070        4.27739
C        -13.16822       -0.93596        3.93568
C        -13.15302       -1.85440        5.17905
C        -12.98383       -1.14722        6.44195
C        -12.12590       -1.48957        7.59987
C         -9.66376       -0.51890        8.43280
C         -9.56506        0.34275        7.12735
C        -10.38445        1.81076        7.17083
C        -11.26809        2.13822        5.96925
C        -12.51540        3.16928        6.26825
C        -13.84700        2.59127        5.80143
C        -13.77525        1.10640        5.33175
C        -13.77696        0.12002        6.49383
C        -14.13912        0.61720        7.78673
C        -13.33216        0.20287        8.95685
C        -12.12640       -0.54759        8.73925
C        -10.81745        0.02101        9.26921
C        -10.96303        1.48956        9.72732
C        -10.83230        2.50565        8.60289
C        -11.80935        3.84680        8.78980
C        -12.65343        4.21207        7.59029
C        -14.10452        4.98456        7.95982
C        -15.31601        4.24485        7.39223
C        -14.96165        2.86391        6.79938
C        -14.97828        1.80430        7.86395
C        -15.46148        2.10218        9.17948
C        -14.71242        1.57754       10.37184
C        -13.40526        0.99952       10.15681
C        -12.17233        1.74639       10.63508
C        -12.51551        3.11434       11.25872
C        -12.44943        4.27337       10.27955
C        -13.60485        5.44319       10.57216
C        -14.45358        5.82442        9.38074
C        -16.52504        4.19463        8.36336
C        -16.40382        3.04562        9.32582
C        -14.88196        2.25394       11.62700
C        -13.76478        3.11514       12.17138
C        -10.26032       -0.11392        4.56258
C         -9.29889       -0.41565        5.77339
C         -8.34252       -0.51781        2.94175
C         -7.39833       -0.80271        4.09825
C         -6.31048       -0.19070        1.32419
C         -5.34312       -0.49483        2.50125
C         -9.85603       -0.77048        3.19279
C         -4.38734        0.11056       -0.15962
C         -3.44567       -0.19604        0.98591
C         -8.04791       -1.32401        5.42559
C         -7.76349       -0.57426        1.55724
C         -5.98058       -1.13868        3.72954
C         -5.78540       -0.20865       -0.12223
C         -3.87122       -0.81873        2.20636
C        -10.51630       -1.90209        2.20615
C         -7.57815       -2.84906        5.82885
C         -8.33595       -1.64125        0.66761
C         -5.55300       -2.54412        4.05226
C         -6.30053       -1.32496       -0.97663
C         -3.45733       -2.22453        2.49632
C        -11.75046       -2.96129        2.35300
C         -9.40661       -2.52409        1.30111
C         -6.61815       -3.42722        4.71302
C         -7.35252       -2.24987       -0.30547
C         -4.56474       -3.14609        3.06154
C         -5.34390       -2.15414       -1.67625
C         -2.67548       -2.92470        1.52203
C        -11.32734       -4.42472        2.74032
C         -8.97132       -3.94241        1.67197
C         -7.21153       -4.51780        3.82186
C         -6.92463       -3.70613        0.03148
C         -5.14836       -4.27052        2.16476
C         -5.03187       -3.26918       -1.43635
C         -9.72408       -4.64851        2.88125
C         -8.70230       -4.98786        4.14184
C         -3.21552       -4.04221        0.66077
C         -7.55551       -4.31598        1.28200
C         -6.61954       -4.61588        2.41634
C         -5.50309       -4.14306       -0.38112
C         -4.58009       -4.47843        0.74288
C        -19.44670       -7.29657        1.15469
C        -19.91457       -5.89988        0.86057
C        -16.65370       -6.34213        1.31040
C        -17.10648       -4.93471        0.99805
C        -13.92562       -5.36382        1.88694
C        -14.35589       -3.94878        1.53456
C        -17.88694       -7.39891        1.69186
C        -18.76410       -4.70588        1.06016
C        -15.16521       -6.45354        2.03124
C        -16.00352       -3.73514        1.36231
C        -12.50741       -5.52055        2.77547
C        -13.32694       -2.71827        2.02156
C        -17.78943       -7.94941        3.10441
C        -19.19452       -3.58752        1.99274
C        -15.21248       -7.12552        3.39120
C        -16.56715       -2.62450        2.23715
C        -12.67051       -6.38639        4.05240
C        -14.03310       -1.56272        2.78558
C        -19.15647       -8.15610        3.82041
C        -20.57863       -3.85789        2.73587
C        -16.64438       -7.33962        3.94237
C        -17.99919       -2.95849        2.83283
C        -14.17349       -6.59103        4.39034
C        -15.49405       -2.00352        3.21999
C        -19.53804       -7.00018        4.71908
C        -20.39568       -4.31615        4.17105
C        -17.10528       -6.21932        4.85507
C        -17.91988       -3.52729        4.23979
C        -14.71469       -5.44071        5.22596
C        -15.45803       -2.75524        4.54578
C        -18.55145       -5.91025        4.92158
C        -18.98848       -4.49323        4.64990
C        -16.15271       -5.12814        5.15884
C        -16.55682       -3.72151        4.83215
C        -13.76399       -4.35803        5.59550
C        -14.10674       -2.98581        5.18112
C        -12.69872       -6.84087       13.98902
C        -11.31388       -6.82353       14.60758
C        -11.89658       -5.51049       11.90490
C        -10.47936       -5.38912       12.43497
C        -11.34145       -4.12375        9.78386
C         -9.93958       -3.82381       10.29279
C        -12.79122       -6.53702       12.52952
C        -11.13334       -2.55491        7.77235
C         -9.75929       -2.08323        8.30919
C        -10.16377       -6.47045       13.55204
C        -12.12606       -5.19248       10.46369
C         -9.45054       -4.92079       11.31510
C        -11.63857       -3.82384        8.33809
C         -9.04712       -3.20042        9.14032
C        -13.26978       -7.66179       11.64418
C         -9.40319       -7.67888       13.03140
C        -12.67388       -6.29085        9.60302
C         -8.71189       -6.07040       10.64605
C        -12.26439       -4.87737        7.53186
C         -8.37292       -4.31303        8.29074
C        -13.55822       -8.96304       12.29173
C         -9.80022       -9.10332       13.82771
C        -12.90072       -7.61623       10.21854
C         -8.94487       -7.54309       11.41173
C        -12.42065       -6.21955        8.15599
C         -8.47321       -5.84060        8.99440
C        -12.44659       -4.82559        6.07248
C         -8.28837       -4.07642        6.66359
C        -12.89583      -10.09197       11.88496
C        -10.29615      -10.21194       12.92438
C        -12.15275       -8.80508        9.66917
C         -9.46384       -8.64511       10.51765
C        -11.73352       -7.39658        7.48159
C         -9.03752       -6.94023        8.10934
C        -11.82983       -6.00610        5.29780
C        -11.82816       -9.84491       10.77652
C        -10.40263       -9.78681       11.30359
C         -8.90613       -5.21015        5.76033
C        -11.19703       -8.43286        8.50267
C         -9.76261       -8.19216        8.93420
C        -10.97129       -6.93764        6.20491
C         -9.52763       -6.48582        6.55273
C        -30.78095       -0.37017        9.11697
C        -30.11698       -1.31653       10.08203
C        -33.38875       -0.13688       10.11834
C        -31.77479       -1.11538        8.21845
C        -33.89990       -0.83686       11.35437
C        -31.07861       -2.65350       12.46985
C        -33.19182       -1.13290        8.76716
C        -30.38909       -2.73085       10.06013
C        -32.46366       -2.56612       13.06099
C        -31.27145       -2.49428        7.70915
C        -30.86748       -3.44086       11.28325
C        -30.60219       -3.32154        8.78295
C        -33.51267       -3.35356       12.19488
C        -34.21143       -2.48573       11.15817
C        -33.96253       -2.58857        8.46967
C        -32.04180       -3.38468        6.76286
C        -34.48756       -3.28961        9.69941
C        -31.59735       -4.68607       11.14223
C        -33.47633       -3.60157        7.21117
C        -30.66913       -4.77070        8.80129
C        -33.02964       -4.74175       11.63006
C        -31.28142       -4.67126        6.35688
C        -31.18463       -5.48628        9.99606
C        -30.69160       -5.43305        7.53673
C        -33.88387       -5.68863       10.74036
C        -34.55902       -4.96355        9.58448
C        -33.95647       -5.14688        6.95901
C        -31.77970       -5.66629        5.34463
C        -34.54511       -5.85208        8.17271
C        -31.76492       -6.80337        9.80816
C        -33.20474       -6.12102        5.79459
C        -22.86157       -5.11498        4.38967
C        -30.60595       -6.91985        7.53872
C        -23.17129       -4.72705        2.95031
C        -33.18605       -7.02986       10.31402
C        -25.28017       -5.97930        4.83790
C        -25.71048       -5.55292        3.43736
C        -27.68694       -6.81744        5.43958
C        -28.21696       -6.24730        4.12715
C        -31.22333       -7.63959        8.68804
C        -23.79281       -6.09687        5.07590
C        -30.64841       -6.71346        5.02434
C        -26.19812       -6.93012        5.58239
C        -30.05975       -7.42288        6.27457
C        -28.59955       -7.75547        6.22556
C        -24.50409       -5.38208        2.42272
C        -27.10327       -6.14013        3.02447
C        -34.43644       -7.52858        8.16974
C        -33.85933       -8.14417        9.47970
C        -29.67195       -6.74416        3.82228
C        -33.57751       -7.62298        5.60498
C        -24.29748       -6.57077        1.49395
C        -33.54150       -8.43035        4.24519
C        -27.01807       -7.36163        2.12511
C        -29.66096       -8.06372        3.03653
C        -31.51561       -9.07515        8.84198
C        -34.25218       -8.35986        6.81557
C        -34.93212       -9.08916        3.97638
C        -23.28534       -7.52116        5.21486
C        -22.70678       -6.87414        1.15068
C        -25.66058       -8.30099        5.88409
C        -28.03060       -9.04712        6.71661
C        -25.50055       -7.70427        1.59397
C        -32.94938       -9.41429        9.34242
C        -35.33030       -9.53176        2.59131
C        -28.18999       -8.48278        2.42866
C        -32.35402       -9.01127        3.29100
C        -21.98971       -7.77499        4.86363
C        -30.76463       -9.14439        3.43877
C        -30.44289       -9.91982        9.40144
C        -24.29409       -8.62216        5.34045
C        -36.72735      -10.06961        2.32948
C        -35.59991       -9.80701        5.14103
C        -26.65613       -9.40088        6.15510
C        -34.79302       -9.83143        6.48509
C        -28.88739      -10.18066        7.22300
C        -37.09373      -10.43261        0.88068
C        -22.96464       -9.69425        3.47104
C        -22.26321       -8.14557        1.42048
C        -29.20403      -10.35369        8.67323
C        -21.67705       -9.01405        4.03273
C        -32.87019      -10.17315        2.39813
C        -30.66823      -10.40601       10.83352
C        -25.50096      -10.50866        4.12623
C        -34.22974      -10.10549        1.74738
C        -25.01333       -9.08858        1.91446
C        -24.14055       -9.84781        4.47735
C        -38.39835      -11.01907        0.82740
C        -37.38148      -10.84068        3.50820
C        -33.03159      -10.79175       10.09482
C        -27.68498       -9.86343        2.81398
C        -27.97201      -11.34071        5.08384
C        -26.56421      -10.65066        5.27952
C        -23.38037       -9.17938        2.09287
C        -28.83261      -11.48685        6.40635
C        -36.52618      -10.94628        4.76287
C        -32.04449      -10.89555       11.27852
C        -30.24670      -10.56134        3.84650
C        -26.06307      -10.02654        2.80072
C        -34.24771      -11.32802        6.82408
C        -34.64684      -11.19103        0.77656
C        -28.67001      -10.76845        3.81812
C        -29.52234      -10.91483       11.58285
C        -33.01823      -11.88441        7.65154
C        -35.99626      -11.02669        0.06193
C        -32.93535      -12.07323        9.22355
C        -39.03417      -11.78584        1.96403
C        -28.48761      -11.49669        9.31596
C        -32.36002      -11.56731        2.74616
C        -31.83234      -12.44592        6.78805
C        -38.35562      -11.99694        3.20921
C        -32.07534      -12.44508        5.22093
C        -28.42416      -11.52568       10.77468
C        -29.19646      -12.78249        7.26202
C        -31.38384      -11.67551        3.96920
C        -29.68145      -11.33739       13.00808
C        -36.27284      -12.17894       -0.74091
C        -36.01222      -12.32399        5.07848
C        -34.65506      -12.37255        5.73813
C        -31.96657      -12.13869       12.27015
C        -34.12175      -12.61354        1.11439
C        -30.95800      -12.02525       13.45704
C        -28.41570      -12.83697        8.58507
C        -30.68411      -13.17454        7.56207
C        -33.52276      -12.94994        4.90033
C        -33.27257      -12.70933        2.37257
C        -33.89396      -13.44588        3.52299
C        -32.09256      -13.33449        9.90878
C        -28.44789      -11.75350       13.67568
C        -37.84739      -13.36486        3.52867
C        -31.89262      -13.47785       11.55299
C        -36.42485      -13.42467        4.11313
C        -27.63080      -12.57478       11.39364
C        -35.76164      -13.56739       -0.42960
C        -30.96860      -13.90945        9.05647
C        -28.41910      -14.06619        9.53946
C        -27.43890      -12.45648       12.81887
C        -34.95727      -13.84197        0.72514
C        -35.27168      -14.03489        3.26886
C        -28.45279      -12.07190       15.11991
C        -35.56228      -14.59505        1.86366
C        -30.69272      -13.17375       14.55602
C        -38.04426      -14.41899        2.57898
C        -29.61784      -12.85680       15.68765
C        -27.52246      -13.94096       10.75410
C        -29.78143      -14.63596        9.88648
C        -30.94330      -14.61947       12.31706
C        -36.92494      -15.02301        1.76486
C        -30.54002      -14.56523       13.95086
C        -26.50878      -13.37149       13.42287
C        -29.89815      -15.25376       11.44545
C        -27.30123      -15.08180       11.76821
C        -26.30574      -14.75963       12.86915
C        -28.56753      -15.75600       12.28002
C        -29.38685      -15.51780       14.73149
C        -28.46870      -16.12839       13.91648
C        -24.69071       13.79942       21.27924
C        -23.71831       13.27502       22.31111
C        -27.48916       13.20806       21.45784
C        -25.29848       13.00387       20.25256
C        -28.02500       12.35865       22.58487
C        -24.70388       11.57841       24.44097
C        -26.75043       12.69547       20.34265
C        -23.32790       11.90182       22.33406
C        -26.18525       11.26348       24.52735
C        -24.39550       11.83815       19.86485
C        -23.85065       11.02787       23.43204
C        -23.37384       11.30816       20.90711
C        -26.86348       10.38967       23.61651
C        -27.82798       10.94466       22.61744
C        -27.15855       11.24823       20.03259
C        -24.93035       10.82093       18.84369
C        -27.73604       10.37569       21.17662
C        -24.37888        9.67509       22.98351
C        -26.39417       10.50192       18.92788
C        -23.07184        9.85304       20.77442
C        -25.90057        9.35530       23.06957
C        -24.04211        9.70422       18.36936
C        -23.63486        8.99906       21.87201
C        -23.03052        9.22029       19.40092
C        -26.44071        8.40239       22.03483
C        -27.44227        8.91056       21.03844
C        -26.80621        9.08856       18.52138
C        -24.49265        8.66177       17.24644
C        -27.40476        8.25763       19.65244
C        -24.08087        7.66862       21.44448
C        -26.07760        8.28532       17.32723
C        -15.65748        6.57330       12.42908
C        -22.65633        7.75561       19.28154
C        -16.52133        6.95694       11.24771
C        -25.55266        7.35727       21.52376
C        -17.86841        7.22432       14.28630
C        -18.75335        7.59438       13.11822
C        -20.12423        7.42211       16.08967
C        -21.03377        7.81075       14.93611
C        -23.29196        6.90710       20.41152
C        -16.46211        6.47188       13.89737
C        -23.22311        7.86165       16.71783
C        -18.66790        6.88550       15.69613
C        -22.25106        7.41907       17.84014
C        -20.86488        6.91405       17.45005
C        -18.15677        7.17829       11.62786
C        -20.39074        7.60552       13.45484
C        -27.16062        6.74291       19.54098
C        -26.07404        6.29232       20.58427
C        -22.68094        7.70283       15.23655
C        -26.92291        6.94990       16.89589
C        -19.09250        6.23947       10.86745
C        -27.37156        6.39795       15.43410
C        -21.23291        6.70100       12.57038
C        -23.49257        6.84598       14.21147
C        -23.63698        5.45955       20.55783
C        -27.54442        6.19330       18.11213
C        -28.86760        5.59931       15.22560
C        -16.31188        5.13679       14.60600
C        -18.30359        5.15806       10.09144
C        -18.38643        5.51752       16.29155
C        -20.42981        5.56137       18.02903
C        -20.36946        5.77279       11.67646
C        -25.12662        5.13400       20.68085
C        -29.36087        4.95537       13.78979
C        -22.49054        6.04382       13.29882
C        -26.29178        6.04871       14.34182
C        -15.60256        4.08579       13.77033
C        -24.73783        5.98536       14.72972
C        -22.64856        4.46812       21.08563
C        -17.58717        4.63651       15.37161
C        -30.75012        4.02271       13.54355
C        -29.45972        4.93400       16.45696
C        -19.59238        4.83050       17.00687
C        -28.52393        5.00679       17.82019
C        -21.47725        4.64829       18.72073
C        -31.05662        3.22169       12.11146
C        -18.03900        3.36896       13.25547
C        -18.16145        4.00317       10.81679
C        -21.47936        4.11783       20.16851
C        -16.60251        3.18066       13.09012
C        -26.76696        4.78852       13.52061
C        -23.07749        3.44027       22.22735
C        -19.96622        3.73955       14.75617
C        -28.20425        4.61705       12.86887
C        -20.16957        4.42012       12.31331
C        -18.49923        3.72683       14.56935
C        -32.28974        2.09396       11.82853
C        -31.30927        3.35513       14.77614
C        -25.52151        3.82979       21.30686
C        -22.18371        4.66882       13.89525
C        -21.97569        3.90113       16.33640
C        -20.47811        3.97445       16.09958
C        -18.86847        3.78845       12.07687
C        -22.38765        3.84662       17.76181
C        -30.43609        3.63740       16.16851
C        -24.55328        3.10692       22.34065
C        -24.32221        4.62709       15.33006
C        -20.84625        4.09710       13.59527
C        -28.16486        3.64572       18.42793
C        -28.45065        3.31005       12.06461
C        -22.87678        4.25768       15.18845
C        -22.08332        2.34626       22.70750
C        -26.78064        3.45204       19.05345
C        -29.79375        2.95721       11.30950
C        -26.47031        2.98001       20.47934
C        -32.81849        1.40666       13.06405
C        -21.24540        2.63243       20.26097
C        -26.24930        3.49765       14.15764
C        -25.62207        3.22474       18.03808
C        -32.08763        1.89745       14.50327
C        -26.05404        3.05942       16.64216
C        -21.07622        1.96507       21.63579
C        -23.03644        2.63383       18.35010
C        -25.39945        3.59475       15.39986
C        -22.46466        1.19213       23.77203
C        -29.81938        1.58761       10.57920
C        -29.90789        2.37631       16.82882
C        -28.50585        2.53100       17.47005
C        -24.90686        1.67901       22.89053
C        -27.84649        2.11152       12.76802
C        -23.93054        0.82820       23.85221
C        -22.13583        1.86088       19.27657
C        -24.51012        2.38684       18.53871
C        -27.34572        2.29241       16.51047
C        -27.09151        2.30149       14.00865
C        -27.66381        1.68183       15.24234
C        -26.02088        1.55086       20.54759
C        -21.44485        0.00367       24.06243
C        -31.45725        0.75480       15.28329
C        -25.76170        0.87685       21.92193
C        -30.10450        1.12692       15.99138
C        -20.80173        0.50451       21.59969
C        -29.17482        0.50904       11.41334
C        -24.94894        1.27956       19.48555
C        -22.55481        0.52284       19.69199
C        -20.52592       -0.27363       22.88570
C        -28.54395        0.83826       12.66656
C        -28.87141        0.84139       15.15889
C        -21.77434       -1.30265       24.99137
C        -29.06946        0.17510       13.90298
C        -24.25145       -0.70741       24.21336
C        -31.46555       -0.58531       14.52692
C        -23.23377       -1.69596       25.04994
C        -21.64809       -0.21654       20.56777
C        -24.01745        0.20544       19.78497
C        -25.39033       -0.57359       21.86884
C        -30.15429       -0.79542       13.80994
C        -25.08967       -1.40574       23.14973
C        -20.22978       -1.71913       22.67918
C        -24.46630       -0.86719       20.70887
C        -22.05437       -1.56283       20.87321
C        -21.11632       -2.34484       21.63125
C        -23.51266       -1.91534       20.95824
C        -24.68898       -2.85057       22.94344
C        -23.89371       -3.01813       21.83919
C        -20.52766       -4.55319       22.35562
C        -19.56771       -4.04598       23.39446
C        -23.31698       -5.35067       22.42693
C        -20.87506       -5.92582       22.27576
C        -24.11247       -5.31085       23.70153
C        -21.00693       -3.98391       25.79208
C        -22.30334       -6.36095       22.26523
C        -19.11709       -5.11195       24.34755
C        -22.45903       -4.40140       25.82762
C        -19.83521       -6.82119       22.62549
C        -19.93578       -5.21408       25.62099
C        -18.81846       -6.42327       23.66771
C        -22.73036       -6.02231       25.75923
C        -23.71992       -6.44058       24.68354
C        -22.60505       -7.68415       22.74007
C        -20.15279       -8.18767       22.35336
C        -23.40144       -7.81098       24.02511
C        -20.18014       -6.75997       26.08462
C        -21.55890       -8.64648       22.42263
C        -18.29394       -7.59756       24.41083
C        -21.62874       -7.18702       26.14041
C        -19.08327       -9.11006       22.51816
C        -19.10965       -7.92954       25.64684
C        -17.97012       -8.76299       23.49958
C        -21.91265       -8.77600       25.84897
C        -22.99065       -9.05216       24.81089
C        -21.78104      -10.01595       22.76931
C        -19.34386      -10.50489       22.12774
C        -22.71893      -10.30276       23.93736
C        -19.34154       -9.50254       25.79924
C        -20.72889      -11.00178       22.35880
C        -12.43007       -8.12072       16.74714
C        -17.34237      -10.01622       23.99658
C        -13.76153       -8.08127       16.02016
C        -20.79400       -9.94999       25.92183
C        -13.77934       -9.25970       18.82217
C        -15.04827       -9.22902       17.98788
C        -15.29185      -10.20907       20.83744
C        -16.48734      -10.30283       19.89845
C        -18.27034      -10.56602       25.11714
C        -12.44409       -9.12527       17.96190
C        -18.07518      -11.15667       21.77651
C        -13.91435      -10.18948       20.07332
C        -16.92420      -10.88654       22.78108
C        -15.52611      -11.03109       22.14364
C        -14.87741       -8.97237       16.52399
C        -16.23530      -10.06085       18.44369
C        -22.37511      -11.65890       24.50525
C        -21.13773      -11.48113       25.43141
C        -17.68865      -11.13964       20.33502
C        -21.30073      -12.33735       22.23238
C        -15.35740      -10.06453       15.59535
C        -21.72165      -12.69699       20.87137
C        -16.79547      -11.07887       17.48337
C        -18.35657      -12.02227       19.34284
C        -18.55157      -12.05988       25.10602
C        -22.29577      -12.72826       23.37072
C        -23.22973      -12.72798       20.62863
C        -11.74687      -10.44679       17.68322
C        -14.62107      -10.18778       14.30725
C        -13.30483      -11.57033       19.88351
C        -15.05328      -12.48031       22.00002
C        -16.03386      -11.25523       16.20418
C        -20.02436      -12.53699       25.29284
C        -23.70800      -12.71392       19.24950
C        -17.55888      -12.24406       18.07442
C        -20.78385      -12.93026       19.72615
C        -10.98905      -10.50863       16.18982
C        -19.30490      -13.10700       19.78282
C        -17.46734      -13.14343       25.23382
C        -12.46153      -11.74021       18.46439
C        -25.17565      -12.71759       18.95552
C        -24.17435      -13.30536       21.67912
C        -14.17628      -12.76888       20.63208
C        -23.36015      -13.76139       22.90767
C        -15.97876      -13.58502       22.70443
C        -25.52640      -12.64909       17.53670
C        -12.74493      -12.52680       15.93001
C        -13.98056      -11.36019       13.99873
C        -16.30107      -13.72270       24.27594
C        -11.49365      -11.60876       15.28060
C        -21.41558      -13.66150       18.60335
C        -17.78435      -13.99391       26.47588
C        -14.34449      -13.63028       18.11379
C        -22.76530      -13.25602       18.22279
C        -15.35637      -12.58596       15.97720
C        -12.99938      -12.81339       17.54554
C        -26.94116      -12.53202       17.11800
C        -26.12796      -13.49053       19.85020
C        -20.20692      -14.04457       25.55479
C        -16.94271      -13.63344       17.90626
C        -16.17456      -14.58806       20.20943
C        -14.75322      -13.82173       19.70109
C        -14.03669      -12.43700       15.13156
C        -16.57234      -14.70428       21.79078
C        -25.35417      -14.15233       21.03633
C        -19.21607      -14.45198       26.65764
C        -18.80693      -14.55093       19.62588
C        -15.53753      -13.58636       17.17996
C        -22.81575      -15.18886       22.68978
C        -23.34015      -13.89568       17.05894
C        -17.29879      -14.61319       19.12851
C        -16.72382      -14.77570       27.15831
C        -21.32529      -15.44155       23.20312
C        -24.58576      -13.33648       16.59500
C        -20.80117      -15.28050       24.70393
C        -27.98604      -13.34976       17.84782
C        -15.88744      -15.12951       24.76169
C        -21.01844      -15.12026       18.37959
C        -20.26380      -15.95001       22.16259
C        -27.32758      -14.18731       19.02977
C        -20.79924      -16.17286       20.67846
C        -15.70235      -15.39457       26.24900
C        -17.29515      -15.91981       22.62964
C        -20.00006      -15.59676       19.44673
C        -17.04108      -15.49467       28.45183
C        -25.07223      -13.82024       15.33576
C        -24.96561      -15.60048       20.76789
C        -23.46062      -15.98648       21.38724
C        -19.42863      -15.69399       27.44786
C        -23.01030      -15.33536       16.73741
C        -18.50610      -15.99598       28.61127
C        -16.42460      -16.29182       23.92661
C        -18.86028      -16.39840       22.82177
C        -22.44579      -16.49971       20.37551
C        -22.17636      -15.98869       17.82868
C        -23.02568      -16.69422       18.86530
C        -20.15412      -16.59926       25.16271
C        -15.89687      -16.23980       29.13981
C        -27.04257      -15.63409       18.65883
C        -19.93475      -16.86159       26.64776
C        -25.64110      -16.24388       19.37987
C        -15.19344      -16.73455       26.71050
C        -24.79341      -15.22969       14.88692
C        -19.10950      -17.16902       24.20459
C        -16.63496      -17.58427       24.70100
C        -14.92495      -16.90856       28.22184
C        -24.12914      -16.05981       15.97236
C        -24.64430      -16.85977       18.42689
C        -16.38439      -16.93674       30.29162
C        -25.10927      -16.83247       16.83354
C        -18.79129      -17.26365       29.42351
C        -27.66680      -16.09515       17.15883