349
	Energy:    5770.5250534
C        -12.66667       -1.74636        4.82107
C        -12.66920       -0.62423        3.99536
C        -14.18323        0.62062        1.95856
C        -15.37905        0.23850        1.37840
C        -17.19931       -1.87813        2.11014
C        -17.20592       -3.09677        3.01961
C        -15.40717       -4.43915        4.83543
C        -14.20475       -4.04944        5.39757
C        -14.23148       -2.97650        6.28273
C        -13.52326       -1.80610        5.92991
C        -14.02891       -0.59414        6.41400
C        -14.03940        0.55199        5.56613
C        -13.53037        0.44961        4.26654
C        -14.23157        1.13501        3.25094
C        -15.37257        1.89408        3.63005
C        -16.58417        1.58296        3.00693
C        -16.55456        0.50840        2.07735
C        -17.47692       -0.63734        2.41518
C        -18.15113       -0.59406        3.77443
C        -18.14941       -1.86269        4.72818
C        -17.48594       -3.15826        4.29545
C        -16.57024       -3.81961        5.29166
C        -16.59747       -3.25494        6.59515
C        -15.37286       -2.82448        7.11418
C        -15.46694       -1.76809        8.03064
C        -14.85368       -0.60842        7.55857
C        -15.38678        0.58444        8.00222
C        -15.41158        1.70880        7.16281
C        -14.88132        1.63986        5.89002
C        -15.49610        2.43202        4.92133
C        -16.61615        3.23610        5.34685
C        -17.81748        2.97985        4.71391
C        -17.75446        1.90304        3.74834
C        -18.39578        0.63697        4.29938
C        -18.97223        0.70835        5.61657
C        -18.94778       -0.45243        6.50898
C        -18.38380       -1.70198        6.06052
C        -17.74944       -2.59650        7.10797
C        -17.80694       -2.00380        8.42662
C        -16.58331       -1.58558        8.91870
C        -16.64492       -0.49474        9.81815
C        -16.07982        0.63699        9.21562
C        -16.13646        2.83474        7.57197
C        -16.72774        3.73536        6.67108
C        -17.80293        4.58409        7.13605
C        -19.04213        4.27652        6.55239
C        -18.96766        3.23316        5.54946
C        -19.36748        1.89372        6.13982
C        -19.31868       -0.26159        7.80219
C        -18.92628       -1.23228        8.91483
C        -18.96650       -0.65060       10.24305
C        -17.70356       -0.28931       10.76236
C        -25.01181       -2.00364        2.48118
C        -23.68170       -0.65108        4.00376
C        -22.34350        0.70753        5.72155
C        -20.50177        1.72611        7.03513
C        -25.04962       -2.92394        3.24675
C        -24.50281       -0.69235        2.73316
C        -23.70055       -1.72523        4.87960
C        -23.10209        0.63968        4.47873
C        -22.32176       -0.36456        6.55409
C        -21.71396        1.95194        6.22890
C        -20.46762        0.64300        7.86889
C        -24.58531       -2.92817        4.59719
C        -23.11913       -1.54157        6.23140
C        -21.66015       -0.18741        7.86860
C        -25.06148        0.46417        2.29985
C        -23.54275        1.82550        3.96372
C        -22.03499        3.17423        5.70134
C        -26.36595        0.49782        1.69973
C        -24.80740        1.68786        3.16462
C        -25.23047       -3.48871        5.65441
C        -23.23132        3.07696        4.76914
C        -23.64261       -2.21788        7.29912
C        -21.72432        4.44394        6.57137
C        -22.01816       -0.94049        8.94335
C        -26.58041       -3.96721        5.55999
C        -24.97126       -2.82249        6.99679
C        -23.33541       -1.62344        8.65165
C        -21.66828       -0.40753       10.33776
C        -27.32319        1.00676        2.21318
C        -25.91661        2.30630        3.72704
C        -24.32943        3.74181        5.23629
C        -22.87518        5.03003        7.08753
C        -27.27147        1.65860        3.49027
C        -27.50632       -3.43150        6.10305
C        -25.63151        3.00356        5.00430
C        -26.04256       -2.17962        7.60555
C        -24.07935        4.37592        6.54588
C        -24.39030       -0.95287        9.20831
C        -22.77832        0.15433       10.93883
C        -27.38184       -2.24478        6.90184
C        -25.65740       -0.98774        8.41934
C        -23.93257        0.26848        9.94176
C        -27.86971        1.13740        4.59440
C        -26.12451        2.33007        6.09298
C        -24.48475        3.57821        7.53220
C        -28.77503        0.03396        4.61308
C        -27.90147       -1.05660        6.50922
C        -27.11025        1.24807        5.90778
C        -26.06213        0.19899        7.88717
C        -25.31666        2.42133        7.31082
C        -24.16234        1.43365        9.23530
C        -24.06124        3.98808        8.90035
C        -28.78775       -0.86443        5.40499
C        -27.09961        0.19837        6.80665
C        -25.21142        1.37651        8.15467
C        -23.63900        2.78865        9.71288
C        -16.31470        6.72985       10.13453
C        -13.63540        6.74048        9.94432
C        -11.00154        6.68475        9.82217
C         -8.56614        6.62316        9.58308
C        -16.38220        5.92353        9.00824
C        -14.90852        6.72716       10.74517
C        -13.70546        5.94428        8.83801
C        -12.26728        6.76390       10.60793
C        -11.07446        5.86768        8.69947
C         -9.64747        6.78595       10.51306
C         -8.63016        5.91495        8.61727
C        -15.03875        5.26198        8.71505
C        -12.40791        5.22932        8.50119
C         -9.79752        5.15055        8.28148
C        -14.74296        6.01319       11.88533
C        -12.17977        6.12748       11.81288
C         -9.58873        6.28309       11.77286
C        -15.80899        5.92185       12.91192
C        -13.41444        5.54541       12.31505
C        -14.93207        3.95602        9.05874
C        -10.86285        5.70355       12.35403
C        -12.38839        3.88658        8.75081
C         -8.43267        5.72580       12.40144
C         -9.82086        3.79658        8.38594
C        -16.07950        3.02436        8.94474
C        -13.62238        3.32179        9.27267
C        -11.10249        3.15680        8.88286
C         -8.69378        2.95304        8.63069
C        -15.76072        4.79432       13.75709
C        -13.36834        4.46197       13.12208
C        -10.81627        4.58964       13.17713
C         -8.39318        4.76044       13.11018
C        -14.65136        3.84535       13.50325
C        -16.04276        1.89744        9.79039
C        -12.08580        3.87713       13.47464
C        -13.58198        2.23611       10.07618
C         -9.49122        3.93228       13.49962
C        -11.05993        2.04065        9.70334
C         -8.65785        1.98815        9.34028
C        -14.85387        1.78511       10.67101
C        -12.30245        1.63543       10.41256
C         -9.73016        1.44618       10.11467
C        -14.73595        2.53590       13.85337
C        -12.09181        2.53248       13.72389
C         -9.47006        2.57790       13.60212
C        -16.11796        1.89051       13.72828
C        -14.88426        1.06347       11.82143
C        -13.43461        1.83820       13.55220
C        -12.24334        0.99312       11.61804
C        -10.80145        1.87939       13.34812
C         -9.62853        0.94006       11.37092
C         -8.36562        1.79973       13.11766
C        -16.20355        1.07784       12.60416
C        -13.51669        1.03838       12.45314
C        -10.88343        1.05972       12.23184
C         -8.43435        1.09082       12.15268
C        -13.40970       11.93062       16.94477
C        -14.74598       10.66762       15.41492
C        -16.14518        9.43192       13.77605
C        -17.52963        8.14160       12.09749
C        -14.55563       12.36451       17.59261
C        -13.53296       10.80849       16.13058
C        -15.90758       11.11055       16.06757
C        -14.94294        9.58957       14.54131
C        -17.28743        9.89219       14.39829
C        -16.35299        8.32455       12.91695
C        -18.70921        8.57390       12.72188
C        -15.72160       11.63710       17.36904
C        -17.07113       10.40553       15.73052
C        -18.47567        9.18102       14.00173
C        -12.85345        9.61578       16.48913
C        -14.33076        8.41656       14.99025
C        -15.75245        7.18526       13.47747
C        -11.93213        9.55675       17.54592
C        -13.41773        8.40291       16.06824
C        -16.30328       10.91883       18.44644
C        -14.92890        7.22887       14.61142
C        -17.54756        9.64446       16.81073
C        -18.83584        8.29093       15.16569
C        -15.84490       11.03352       19.76819
C        -17.05230        9.77730       18.13086
C        -18.19901        8.47416       16.49915
C        -11.88167        8.43986       18.38237
C        -13.36698        7.26006       16.92473
C        -14.87967        6.10420       15.45382
C        -12.75167        7.35726       18.18111
C        -15.79340        9.91695       20.60615
C        -14.23170        6.17102       16.67353
C        -17.00044        8.62696       18.99588
C        -15.65634        4.98347       15.12673
C        -18.15235        7.35944       17.34172
C        -16.19961        8.65499       20.14565
C        -17.44690        7.37049       18.52226
C        -18.74721        6.09688       16.82835
C        -13.34361        6.64058       19.25282
C        -14.75613        5.37929       17.69810
C        -16.17094        4.09774       16.08965
C        -13.18716        7.11140       20.55341
C        -15.52974        7.45583       20.50485
C        -14.53041        5.92228       18.97059
C        -16.87941        6.15081       18.92686
C        -15.93169        4.61992       17.38552
C        -18.28412        4.75573       17.34026
C        -17.32014        3.29207       15.74331
C        -14.33188        7.53574       21.20975
C        -15.68942        6.34637       19.64021
C        -17.06782        5.00733       18.06796
C        -18.49888        3.68925       16.40905
C        -24.90215       12.45089       18.21103
C        -23.77885       11.16280       16.53488
C        -22.63314        9.88776       14.73266
C        -21.45944        8.58752       12.92456
C        -26.12773       12.06171       17.69376
C        -23.79219       11.69230       17.84805
C        -25.02077       10.77106       16.01149
C        -22.68591       10.41878       16.06768
C        -23.85668        9.50506       14.21726
C        -21.54763        9.11273       14.27034
C        -22.70667        8.19967       12.40323
C        -26.13547       10.94272       16.86583
C        -24.96195        9.69742       15.11149
C        -23.78997        8.40716       13.33074
C        -23.09406       10.96472       18.84594
C        -22.08610        9.65367       17.07435
C        -21.04813        8.34429       15.33586
C        -23.38100       11.09100       20.21396
C        -22.41043        9.80845       18.44215
C        -26.79490        9.76541       17.30331
C        -21.46149        8.48884       16.66982
C        -25.55336        8.53842       15.62330
C        -20.03652        7.42055       15.19322
C        -24.37258        7.28119       13.93571
C        -27.57525        9.72328       18.46898
C        -26.31902        8.54151       16.81107
C        -25.04604        7.33682       15.16460
C        -24.40843        6.02235       13.36173
C        -23.35053        9.97524       21.05283
C        -22.37498        8.66693       19.30363
C        -21.41842        7.36689       17.52273
C        -19.99104        6.29909       16.04662
C        -23.03094        8.70762       20.54298
C        -27.54283        8.60538       19.30477
C        -22.01243        7.40966       18.77015
C        -26.28107        7.39860       17.66870
C        -20.96073        6.14302       17.01172
C        -24.99989        6.21497       16.01273
C        -24.37340        4.89990       14.22309
C        -26.72809        7.50604       18.99407
C        -25.47505        6.29505       17.30958
C        -24.28259        5.08797       15.59467
C        -23.68095        7.52275       20.97547
C        -22.56018        6.20973       19.23740
C        -21.39843        4.89139       17.47030
C        -24.78476        7.62482       21.81763
C        -26.02087        6.77521       19.98302
C        -23.65328        6.42096       20.08944
C        -24.83132        5.49760       18.26138
C        -22.49038        5.08951       18.34372
C        -23.64146        4.20711       16.49532
C        -21.28969        3.76572       16.57807
C        -26.00975        7.23924       21.29597
C        -24.89244        6.03466       19.55517
C        -23.71128        4.72408       17.80599
C        -22.54330        3.38397       16.04416
C        -31.90607        6.64939       10.56737
C        -29.47294        6.81246       10.67155
C        -26.85275        6.97501       10.62390
C        -24.15285        6.99270       10.50080
C        -31.87203        6.00587        9.55519
C        -30.77784        6.82995       11.43790
C        -29.43899        6.09366        9.48161
C        -28.15597        6.89016       11.38353
C        -26.86040        6.35392        9.41073
C        -25.50253        6.90461       11.29645
C        -24.20909        6.35546        9.26474
C        -30.68999        5.34262        9.08174
C        -28.10049        5.56009        9.13402
C        -25.55659        5.80521        9.04511
C        -30.74073        6.30937       12.68843
C        -28.13880        6.21507       12.56882
C        -25.56073        6.14203       12.42831
C        -31.84517        5.71879       13.37344
C        -29.41557        5.75706       13.18403
C        -30.57100        3.98904        9.06581
C        -26.85184        5.65571       12.98218
C        -27.98499        4.20243        9.30369
C        -25.45442        4.49735        9.31072
C        -31.63409        3.06914        9.31032
C        -29.22317        3.40943        9.48953
C        -26.64856        3.71221        9.74492
C        -31.82371        4.73801       14.05978
C        -29.39014        4.63573       13.99574
C        -26.82802        4.58023       13.81371
C        -30.68641        3.92658       14.35553
C        -31.58685        2.09866       10.00927
C        -28.08675        3.95673       14.22059
C        -29.17459        2.31143       10.32393
C        -25.51601        3.96469       14.12615
C        -26.62183        2.71366       10.68008
C        -24.16807        2.92259       11.00334
C        -30.46465        1.62938       10.75603
C        -27.89057        2.00632       11.01616
C        -25.38927        2.36622       11.43315
C        -30.67116        2.56765       14.35745
C        -28.05018        2.60095       14.41177
C        -25.39255        2.64754       14.46891
C        -31.76363        1.79533       13.83339
C        -30.51933        1.09475       11.99981
C        -29.33166        1.93846       14.01302
C        -27.92047        1.26639       12.17096
C        -26.71059        1.93591       14.16589
C        -25.33998        1.36320       12.34968
C        -23.99858        1.99499       14.22216
C        -31.69764        1.16062       12.81713
C        -29.26023        1.22470       12.82352
C        -26.66598        1.23298       12.99074
C        -24.01573        1.23802       13.06618
C        -20.16312        0.59274       12.24629
C        -18.81881        0.98504       12.79541
C        -18.73390        1.86854       14.03526
C        -20.00533        2.33538       14.74136
C        -21.35266        1.91357       14.20328
C        -21.41591        1.06131       12.95424
C        -20.27574       -0.20232       10.94021
C        -17.55435        0.57600       12.06136
C        -17.37075        2.34064       14.51087
C        -19.92852        3.27361       15.93621
C        -22.65084        2.42022       14.84047
C        -22.74954        0.77554       12.33525
C        -20.38632        4.71402        7.21568
C        -17.71986        5.48393        8.39934
C        -20.36081        5.43866        8.54432
C        -19.01548        5.90705        9.08379
C        -23.07595        5.34368        8.68300
C        -18.94329        6.79455       10.31257
C        -21.64685        5.71691        9.33833
C        -17.58028        7.23352       10.84029
C        -21.57288        6.73280       10.50137
C        -20.21497        7.21782       11.01932
C        -20.12775        8.13575       12.24426
C        -22.82243        7.29193       11.14270
