6720
	Energy: 2270167.2824168
C         31.85700        0.52784       58.94330
C         31.24569        3.35816       58.98334
C         31.51860       -0.92588       58.99204
C         30.09508        4.28966       59.08458
C         29.30684       -2.86915       58.99547
C         27.24302        4.88043       59.16350
C         25.77202        4.60399       59.19045
C         27.85825       -3.25805       58.97984
C         25.14366       -2.21081       58.99320
C         23.32744        3.23380       59.10986
C         23.60468        1.76331       59.08622
C         24.13886       -1.11018       59.02357
C         31.95660        1.34212       57.66235
C         31.63486        2.73393       57.64060
C         31.09268       -1.52859       57.74065
C         29.45975        4.71439       57.79909
C         30.07004       -2.54813       57.79637
C         28.04311        4.96305       57.91080
C         27.10999       -3.14894       57.77377
C         25.00499        4.62722       57.97129
C         25.74569       -2.69410       57.79463
C         23.66640        4.02880       57.94858
C         23.82167       -0.38480       57.84807
C         23.63987        1.03104       57.87569
C         31.90311        0.69060       55.91503
C         31.30839        3.33441       55.84939
C         31.48272       -0.76424       56.15676
C         30.18949        4.39572       56.05280
C         29.41605       -2.81728       56.40486
C         27.39870        5.04752       56.36280
C         27.93278       -3.10396       56.45083
C         25.86754        4.89263       56.54165
C         25.14739       -2.18256       56.49950
C         23.46983        1.83283       56.59392
C         24.13838       -1.05299       56.53756
C         23.41845        3.34723       56.57940
C         32.11719        1.30027       53.96222
C         31.78438        2.91572       53.86872
C         31.26279       -1.25277       54.34234
C         29.94562        4.74766       54.09485
C         30.23531       -2.46574       54.77474
C         28.28161        5.15458       54.56873
C         27.29184       -3.00498       55.04512
C         25.36043        4.89700       54.90885
C         25.82539       -2.55696       55.12251
C         23.94257        4.12662       55.10459
C         23.37966        1.14150       55.23903
C         23.79265       -0.33015       55.21878
C         32.47352        0.89621       51.89206
C         32.03963        3.34621       51.75764
C         31.83139       -0.74541       52.38678
C         30.75174        4.61122       52.08934
C         29.91476       -2.72992       52.95364
C         28.18350        5.36791       52.55469
C         28.24903       -3.11762       53.42638
C         26.35595        5.26090       53.16389
C         24.32117       -0.85638       53.83196
C         23.90312        3.61136       53.45236
C         25.34994       -2.02282       53.73499
C         23.35860        2.04703       53.73535
C         33.07678        1.28291       49.76309
C         32.82096        3.11495       49.64189
C         32.12888       -1.10985       50.30388
C         30.83251       -2.37172       51.08594
C         31.09116        4.96192       49.93985
C         29.27170        5.46044       50.63508
C         27.95881       -2.86515       51.61644
C         26.25665       -2.35582       52.10592
C         26.45820        5.26216       51.13847
C         24.77079        4.38833       51.75249
C         23.67978        1.52098       52.09068
C         24.06044       -0.11406       52.29603
C         32.99784       -0.74873       48.23229
C         33.81037        0.96620       47.60757
C         33.51792        3.49875       47.45838
C         32.19754        4.92402       47.88737
C         30.96497       -2.51062       48.99621
C         29.69956        5.76489       48.50392
C         29.12068       -2.79353       49.84619
C         27.76594        5.61105       49.36325
C         26.10667       -1.90571       50.30002
C         24.72327       -0.64911       50.58008
C         25.21722        4.13847       49.79913
C         24.17145        2.52172       50.37353
C         34.75245        1.30790       45.44349
C         34.59464        3.32247       45.31722
C         33.63447       -1.12211       46.07238
C         32.95261        5.37376       45.71453
C         32.10228       -2.24280       47.03632
C         31.06897        5.95484       46.58438
C         29.21055       -2.71670       47.79890
C         27.32635       -2.27583       48.61060
C         28.28736        5.78823       47.27729
C         26.49618        4.91062       48.14344
C         24.90043        0.19228       48.77506
C         24.84489        2.17310       48.50576
C         34.78266       -0.85808       43.96478
C         35.75659        0.94680       43.27120
C         35.60070        3.78356       43.13659
C         34.31667        5.42539       43.65725
C         32.51039       -2.59711       44.88014
C         30.59853       -2.84319       45.99371
C         31.79927        6.49454       44.45909
C         29.80074        6.29892       45.52433
C         27.35912       -1.96490       46.62726
C         25.92774       -0.48535       47.09098
C         27.08003        4.90149       46.12639
C         25.79947        3.30210       46.89031
C         36.97325        1.34240       41.11482
C         35.59862       -1.47941       41.80229
C         36.93170        3.58287       41.00381
C         35.30524        6.14027       41.52237
C         33.87873       -2.57902       42.88016
C         33.35143        6.86577       42.53343
C         30.66077       -3.24677       43.91425
C         28.75241       -2.67205       45.00865
C         30.33004        6.83734       43.43972
C         28.48583        5.89277       44.52766
C         26.21928        0.61536       45.35208
C         26.37369        2.77174       45.00390
C         37.03670       -1.30219       39.70164
C         38.16340        4.33491       38.88515
C         38.17917        0.70376       38.98066
C         36.91442        6.28685       39.47918
C         34.19558       -3.59525       40.83081
C         32.13636       -3.75264       42.08425
C         34.03237        7.92420       40.49267
C         31.90296        7.65587       41.68780
C         28.08611       -2.55895       43.17180
C         26.83669       -0.79967       43.84949
C         28.36290        6.04600       42.49242
C         27.13279        4.26625       43.45659
C         39.71111        1.33247       36.90192
C         37.78522       -2.67529       37.74354
C         39.78543        3.94213       36.80992
C         35.78355       -3.95909       38.84775
C         37.90898        7.64207       37.52407
C         35.74671        8.61857       38.59948
C         31.12556       -4.97918       40.59920
C         29.10047       -3.98499       41.64123
C         31.44407        8.87934       39.88131
C         25.94666        0.56190       42.53380
C         29.46588        7.58724       40.93817
C         26.04895        2.94291       42.29446
C         41.15296        5.50330       34.99209
C         39.69105       -2.46022       35.76564
C         41.00304       -0.18490       35.06054
C         39.91946        7.81192       35.58211
C         34.98816       -6.10429       37.84523
C         35.46990       10.72381       37.23148
C         32.63549       -6.26668       39.02000
C         43.94415       -1.78683       31.76190
C         26.82140       -3.77230       41.56323
C         44.17279        2.75149       32.05239
C         42.59235       -4.09270       32.46254
C         33.06222       10.34212       38.35744
C         42.96542        0.39821       33.07908
C         38.91397       -6.79713       34.59479
C         25.60676       -1.69415       42.03683
C         43.16012        5.18500       32.99957
C         34.98353       -9.42307       36.13008
C         40.46444       -4.53455       34.20814
C         27.18122        7.21339       40.70724
C         25.88592        5.13870       41.42253
C         36.58453       -7.32351       36.06758
C         46.48105        7.28218       29.83375
C         43.22096        9.74115       32.25452
C         32.55710       -9.56834       37.36548
C         39.65137       12.16783       34.13237
C         41.01594        9.81318       33.98340
C         47.01657       -3.69886       28.64383
C         47.38852        0.64715       28.94972
C         45.68258       -5.93978       29.36415
C         47.60680        4.95804       28.93665
C         42.24402       -8.50948       31.54262
C         44.36194        7.32195       31.67043
C         30.92923       -8.03391       38.75906
C         46.02482       -1.53974       29.91067
C         37.20762       12.14580       35.56067
C         38.60892      -11.04311       33.29582
C         46.26440        2.84228       30.12632
C         43.57708       -6.19663       31.09176
C         28.46865       -7.69172       39.77282
C         34.67122      -13.34512       34.76421
C         46.64387       11.85756       29.24926
C         40.01719       -8.76371       33.11418
C         36.25952      -11.24061       34.67163
C         26.68892       -6.03615       40.80778
C         47.69999        9.43711       28.62017
C         43.38887       14.32347       31.22418
C         32.27492      -13.37333       36.04074
C         31.58080       12.15468       37.63720
C         37.41752       16.21470       33.88664
C         44.45526       11.85435       30.93165
C         22.93535        1.62197       42.03643
C         29.12242       11.28204       38.55625
C         23.79545        4.02839       41.62191
C         23.51286        6.43627       41.10895
C         33.33575       13.86409       36.34229
C         27.33931        9.44942       39.62976
C         23.47554       -0.86413       42.09433
C         39.90094       16.56889       32.64247
C         24.99415        8.48769       40.30479
C         41.04457       14.15241       32.71331
C         30.95002      -11.56605       37.40771
C         35.84705       14.33801       35.23366
C         28.54121      -11.45914       38.57045
C         23.00233       -3.29331       42.07234
C         23.18303       -7.51426       41.56795
C         24.34359       -5.39937       41.52828
C         27.04673       -9.70030       39.73567
C         24.65436       -9.38735       40.71394
C         33.49130       17.85722       34.77788
C         36.01195       18.41791       33.69036
C         29.44868       15.24343       36.97296
C         19.91258        3.64985       42.36266
C         19.64764       -0.84879       42.89559
C         31.92102       15.94209       35.99267
C         20.63811        1.35860       42.51645
C         25.43755       12.53315       38.90614
C         27.85578       13.34382       38.07496
C         21.19555        5.72245       41.70308
C         23.89682       10.59976       39.85684
C         19.53932       -5.14033       42.89573
C         20.11771        7.82743       41.39659
C         21.53231        9.79055       40.56153
C         20.67758       -3.04264       42.67401
C         20.82633       -7.14965       42.35080
C         29.27302      -30.58959      -17.76831
C         32.19618      -30.15651      -17.27440
C         28.13865      -31.55501      -17.57351
C         33.64869      -30.16670      -16.88952
C         27.84534      -34.20182      -16.23366
C         29.77315      -29.81406      -16.69687
C         34.45015      -32.52067      -15.43396
C         31.17377      -29.62790      -16.45685
C         28.50046      -35.29907      -15.44095
C         27.48140      -31.70723      -16.32125
C         34.01348      -33.82631      -14.84660
C         34.00521      -30.04120      -15.51748
C         30.75943      -36.65557      -14.15672
C         27.39850      -32.99177      -15.64591
C         32.10921      -36.00644      -14.16886
C         34.18947      -31.29112      -14.78884
C         28.80903      -29.61546      -15.58343
C         31.65802      -29.06010      -15.17468
C         27.59128      -30.48585      -15.45477
C         33.12433      -29.06757      -14.79540
C         28.79072      -35.21665      -14.05396
C         33.41503      -33.96063      -13.56626
C         29.71995      -36.09011      -13.35227
C         32.43880      -34.96103      -13.27040
C         27.40238      -33.02108      -14.13821
C         29.24295      -28.84526      -14.40296
C         30.67135      -28.55836      -14.20521
C         33.79340      -31.41630      -13.34964
C         28.12024      -34.08619      -13.35519
C         26.93599      -30.51234      -14.11774
C         33.43660      -32.72360      -12.73078
C         33.37558      -28.90693      -13.33677
C         26.93235      -31.82451      -13.40945
C         30.22172      -35.52430      -12.00746
C         31.56630      -34.83952      -12.04694
C         33.53975      -30.18622      -12.58493
C         28.28844      -28.53339      -13.33811
C         31.12691      -27.93389      -12.96286
C         27.01952      -29.30108      -13.26333
C         32.57303      -27.89870      -12.62968
C         28.25908      -33.94360      -11.86506
C         32.83892      -32.73008      -11.34957
C         29.22309      -34.80145      -11.10146
C         31.86909      -33.79115      -10.99998
C         26.83332      -31.83722      -11.93459
C         28.74401      -27.75078      -12.18119
C         30.14690      -27.42082      -12.01198
C         33.25271      -30.22635      -11.13478
C         27.48193      -32.90624      -11.14482
C         26.37714      -29.32691      -11.93868
C         32.90300      -31.50995      -10.48960
C         32.85131      -27.68513      -11.20272
C         26.30624      -30.64429      -11.24946
C         29.66526      -34.20366       -9.73513
C         31.05753      -33.64469       -9.72095
C         33.01447      -28.95087      -10.42600
C         27.81025      -27.38783      -11.13734
C         30.58763      -26.70548      -10.81987
C         26.55655      -28.13326      -11.08171
C         32.03765      -26.63354      -10.54224
C         27.52022      -32.77701       -9.65174
C         32.34517      -31.47980       -9.09529
C         28.65156      -33.39439       -8.89245
C         31.41016      -32.56567       -8.67521
C         26.10512      -30.63880       -9.79680
C         28.21468      -26.48347      -10.03999
C         29.60061      -26.12752       -9.88695
C         32.72388      -28.91517       -8.99370
C         26.62177      -31.76700       -8.97415
C         25.87952      -28.06344       -9.82081
C         32.39148      -30.18663       -8.30285
C         32.30745      -26.32698       -9.15046
C         25.64035      -29.36659       -9.17786
C         29.06161      -32.61536       -7.61547
C         30.51651      -32.26224       -7.45380
C         32.50442      -27.57361       -8.35538
C         27.24861      -26.02361       -9.05152
C         30.00615      -25.30665       -8.74501
C         26.02207      -26.79799       -9.02064
C         31.46070      -25.22458       -8.52638
C         26.66173      -31.52344       -7.49220
C         31.87783      -30.06493       -6.91149
C         28.01653      -31.74821       -6.85677
C         30.88366      -31.10081       -6.44886
C         25.29040      -29.27289       -7.79789
C         27.56689      -24.96004       -8.02169
C         28.99284      -24.58316       -7.86159
C         32.29222      -27.43170       -6.94225
C         25.72382      -30.41148       -6.91598
C         25.19551      -26.59047       -7.88396
C         31.98741      -28.68517       -6.20437
C         31.75473      -24.80730       -7.18157
C         24.76419      -27.88833       -7.32337
C         28.40437      -30.75986       -5.75219
C         29.86439      -30.53827       -5.43135
C         32.15012      -25.99172       -6.37531
C         26.45231      -24.31365       -7.20889
C         29.43632      -23.53979       -6.84408
C         25.20199      -25.20482       -7.10662
C         24.89332      -18.99808       -6.70683
C         30.94062      -23.60960       -6.53919
C         22.61884      -20.89890       -6.83369
C         25.86805      -29.91060       -5.54319
C         23.20549      -19.36939       -6.89952
C         27.08878      -17.01263       -6.61709
C         25.47760      -21.75254       -6.49560
C         31.46033      -28.42774       -4.86926
C         27.69591      -19.73652       -6.21699
C         25.44608      -17.42517       -6.76379
C         20.89200      -21.20244       -6.98202
C         30.23517      -29.28040       -4.54923
C         20.29482      -22.68172       -6.77610
C         27.32081      -29.88980       -5.06682
C         23.74393      -22.12595       -6.56242
C         26.00896      -20.16515       -6.41803
C         24.25742      -27.71837       -6.02714
C         23.07404      -23.64391       -6.39428
C         26.70894      -22.86346       -6.59191
C         29.84124      -17.67334       -6.05339
C         28.19827      -18.14293       -6.25245
C         28.37705      -22.42905       -6.38735
C         32.22669      -25.72056       -4.97530
C         21.39340      -23.86246       -6.34035
C         18.57731      -22.95677       -6.88488
C         28.86564      -20.88422       -5.98732
C         24.88958      -28.72519       -5.14291
C         20.87260      -25.29336       -5.87772
C         18.04689      -24.43855       -6.56187
C         30.95670      -18.74290       -5.58436
C         23.98545      -24.96478       -6.26706
C         30.51451      -20.38719       -5.59522
C         31.71067      -26.94061       -4.25194
C         31.69578      -21.42085       -5.09583
C         31.57640      -23.00915       -5.33171
C         23.45414      -26.30719       -5.71298
C         27.65106      -28.77062       -4.07895
C         32.56876      -18.18538       -5.22037
C         19.24195      -25.59224       -5.92767
C         29.19285      -28.48221       -3.78702
C         32.35349      -24.08012       -4.53308
C         22.02783      -26.36815       -5.26962
C         33.63024      -19.20622       -4.59748
C         18.86792      -27.06595       -5.45423
C         34.04791      -21.90112       -3.74760
C         33.15299      -20.83745       -4.50882
C         21.78827      -27.60239       -4.41716
C         24.84593      -28.19610       -3.83039
C         31.26157      -26.61576       -2.94001
C         33.42586      -23.53297       -3.60838
C         26.36250      -28.41101       -3.14952
C         20.16837      -28.07086       -4.61451
C         35.19706      -18.60592       -4.12856
C         29.86599      -27.57191       -2.62946
C         33.78040      -24.53298       -2.51597
C         36.16355      -19.66006       -3.38979
C         23.19168      -28.29707       -3.45378
C         32.58939      -25.88996       -2.06660
C         20.02462      -29.58453       -4.20339
C         35.52960      -21.34127       -3.16656
C         23.14741      -29.68938       -2.85348
C         36.26910      -22.44589       -2.28685
C         35.34847      -24.03033       -1.90417
C         26.43828      -29.28257       -1.95600
C         21.52123      -30.40115       -3.34613
C         29.77923      -28.34893       -1.36582
C         24.81274      -30.21523       -2.08893
C         28.21650      -29.44952       -1.30143
C         31.56545      -28.28208       -0.79161
C         32.95136      -26.98727       -1.07503
C         21.56177      -31.99937       -2.97086
C         35.92114      -25.21205       -1.02929
C         34.73695      -26.68365       -0.65750
C         25.01042      -31.71910       -1.74428
C         23.26952      -32.56069       -2.13854
C         28.51047      -30.92244       -0.82207
C         26.84409      -31.98116       -1.03760
C         31.95092      -29.68017       -0.19709
C         35.23196      -28.03635        0.13063
C         33.83298      -29.43223        0.32554
C         30.39488      -30.91926       -0.21631
C          6.89260       41.44611      -14.71371
C          5.44823       41.80371      -14.82303
C          9.41686       42.53609      -13.71523
C         10.25623       43.61647      -13.09966
C          3.15984       43.57256      -14.42748
C          8.66929       41.55765      -13.00164
C          7.41760       41.03201      -13.46820
C          4.48424       41.57541      -13.80210
C          2.40143       44.75369      -13.93051
C          3.39894       42.47218      -13.57198
C         10.18509       46.33958      -11.82454
C          6.40333       40.50097      -12.47446
C         10.22345       43.81852      -11.70430
C          4.94644       40.74748      -12.64808
C          8.92113       41.54399      -11.54189
C         10.27081       45.12675      -11.10086
C          9.49633       47.56953      -11.30401
C          9.69687       42.65297      -10.91933
C          1.78323       47.20318      -12.76917
C          1.68345       44.80624      -12.69617
C          3.03674       47.78969      -12.21879
C          2.62843       42.43643      -12.26737
C          6.84478       40.07242      -11.12504
C          8.13675       40.60738      -10.65995
C          6.91459       48.91755      -11.04413
C          4.00363       40.44802      -11.49007
C          1.24978       46.05738      -12.10397
C          5.44211       49.01049      -11.20754
C          1.80503       43.58970      -11.82203
C          8.73837       47.55572      -10.10651
C          2.82026       41.31201      -11.29313
C          9.82072       45.26081       -9.69270
C          5.88723       39.45371      -10.12549
C          9.66474       42.75228       -9.46412
C          3.40392       47.67903      -10.85700
C          7.50325       48.26117       -9.93965
C          4.43267       39.62461      -10.31676
C          4.54568       48.33996      -10.34042
C          8.39569       40.55280       -9.21794
C          9.04122       46.43315       -9.20698
C          9.84682       44.07211       -8.84791
C          9.20593       41.62384       -8.64318
C          1.37946       46.08528      -10.55703
C          1.18460       43.56630      -10.41823
C          1.98682       41.17621      -10.01050
C          2.53887       46.83502       -9.97067
C          6.34699       39.08486       -8.75572
C          7.62745       39.64799       -8.31162
C          6.55354       47.86407       -8.82345
C          3.48562       39.29336       -9.15715
C          0.96516       44.86929       -9.73126
C          5.07203       47.93395       -9.00428
C          1.17608       42.32666       -9.54686
C          8.35262       46.34911       -7.89812
C          2.22562       40.06491       -9.00883
C          9.60850       44.20941       -7.42571
C          5.42968       38.47952       -7.71724
C          9.28256       41.73691       -7.20516
C          7.07710       47.06591       -7.68234
C          2.83635       46.72861       -8.47216
C          3.96712       38.54268       -7.93449
C          7.93520       39.62732       -6.87111
C          4.16398       47.22260       -8.00537
C          8.78975       45.33262       -6.94011
C          9.72002       43.00445       -6.61678
C          1.08865       44.85370       -8.16760
C          8.83421       40.64163       -6.35159
C          0.65131       42.33411       -8.06204
C          1.40657       39.91342       -7.68801
C          4.73204       46.63217       -6.73147
C          2.04584       45.80216       -7.52938
C          7.22978       38.75714       -5.90799
C          5.93193       38.19073       -6.32092
C          3.04742       38.16198       -6.77033
C          6.19719       46.60534       -6.56355
C          0.69942       43.62513       -7.31571
C          0.61790       41.07429       -7.18108
C          1.70565       38.81073       -6.66929
C          8.10053       45.16338       -5.66553
C          9.56994       43.13270       -5.19349
C          6.77479       45.75395       -5.47982
C          5.08533       37.55227       -5.26811
C          9.13700       40.69183       -4.93672
C          2.53503       45.49997       -6.05325
C          3.60192       37.48070       -5.51142
C          8.56185       44.10103       -4.76459
C          3.89809       45.92486       -5.67514
C          7.71483       38.69307       -4.47859
C          9.71460       41.91694       -4.39638
C          8.81016       39.58606       -4.03673
C          0.92022       43.54869       -5.70697
C          0.21967       41.08821       -5.60411
C          0.89557       38.61476       -5.33420
C          1.87605       44.49598       -5.07345
C          7.08712       37.81028       -3.48649
C          4.55472       45.38256       -4.35868
C          5.70696       37.24163       -3.88843
C          6.01495       45.31836       -4.28689
C          2.69139       36.98345       -4.39129
C          0.51912       42.33806       -4.81805
C          0.15742       39.79594       -4.74541
C          8.01617       43.94156       -3.44149
C          1.24322       37.46991       -4.35165
C          9.38619       39.63494       -2.64092
C          6.74120       44.56690       -3.17049
C          9.65127       42.05445       -2.96835
C          4.96935       36.37377       -2.93435
C          2.50564       44.16665       -3.55191
C          3.30873       36.23365       -3.17456
C          8.74499       43.06269       -2.47978
C          3.85396       44.69996       -3.19593
C          7.88452       37.58853       -2.10434
C          9.95150       40.90003       -2.12357
C          9.17917       38.58707       -1.66058
C          0.90841       42.20355       -3.15230
C         -0.11737       39.78684       -3.08876
C          0.35828       37.16226       -3.06419
C          7.72828       36.20940       -1.49286
C          5.98359       35.52494       -1.90242
C          1.96527       43.13640       -2.51373
C          2.30329       35.31270       -2.32129
C          6.23624       44.28410       -1.81955
C          4.74011       44.22904       -1.81008
C          0.45456       41.00994       -2.23340
C         -0.32348       38.40337       -2.32652
C          5.02048       34.01997       -1.80951
C          8.68751       43.18426       -1.03541
C          0.58933       35.76614       -2.28842
C          5.83450       30.06046       -3.18266
C         10.46778       41.17047       -0.71512
C         10.46055       38.57690       -0.42853
C          7.36164       43.71132       -0.64544
C          7.72663       30.22352       -3.29146
C          2.87124       28.48025       -3.54559
C          8.24605       33.02715       -2.02762
C          4.70783       28.67216       -3.70134
C          3.09222       33.90720       -1.95140
C          2.77509       42.88311       -0.91683
C         10.90834       31.58941       -2.81589
C          3.01918       31.19467       -2.48726
C          9.53263       35.88524       -0.96142
C          9.92302       42.42051       -0.10229
C         11.75064       34.30015       -1.42965
C          4.24584       43.54673       -0.54227
C          6.24776       32.76648       -2.08820
C         11.36528       40.11544        0.07132
C         14.17808       32.74951       -2.32217
C          8.98773       31.54826       -2.72675
C          4.96243       31.39475       -2.55625
C          0.08941       29.51039       -2.75807
C          9.77803       34.22853       -1.48676
C          0.88692       40.91145       -0.46975
C         11.01889       37.09550       -0.40678
C          1.94380       29.75611       -2.93848
C         -0.80049       35.28789       -1.29041
C          1.87705       32.50488       -2.02688
C         12.27861       32.80764       -2.21587
C         -0.05918       32.32751       -1.83591
C         -0.81735       38.32166       -0.63534
C         13.22413       35.51171       -0.81306
C         15.56438       33.91883       -1.71655
C          2.25243       41.95506        0.31763
C          7.22290       43.57248        0.83933
C          5.42671       43.33849        0.89639
C         -2.79428       30.35926       -1.81215
C         -0.97690       30.74773       -2.13269
C         -0.08567       39.71944        0.44821
C         12.96702       37.19753       -0.06701
C         -1.34259       33.58050       -1.28514
C         -1.62275       36.65400       -0.36100
C         15.15044       35.41279       -0.84805
C         -3.90232       31.55141       -1.03526
C         10.54049       42.91408        1.40970
C         14.49066       38.39378        0.62378
C         12.75685       40.83189        1.18944
C         16.63889       36.52294       -0.20318
C          8.82575       43.48552        1.93611
C          3.09099       42.20920        2.09719
C         -3.11129       33.23744       -0.70376
C         14.54929       40.18326        1.40964
C          5.00991       43.02847        2.53801
C         12.38158       42.49063        2.02572
C         -4.00848       34.59282        0.31827
C         -5.63722       30.95918       -0.56440
C         16.43759       38.10880        0.69419
C         16.12246       41.16977        2.24049
C         -0.19107       40.27492        2.30483
C         18.07372       39.06054        1.38838
C         -3.10244       36.33066        0.76640
C         -6.62201       32.19244        0.43521
C          1.37956       41.56251        3.01996
C         -3.36437       37.75716        2.19382
C          8.86835       44.08046        3.66879
C         15.89917       42.86125        3.20431
C         18.06821       40.70885        2.30633
C          6.70609       43.74434        3.67104
C         -5.76122       33.95350        0.90929
C         13.86698       43.30495        3.15052
C         19.83410       41.47448        3.01691
C         -2.01182       39.33966        2.83633
C         -6.44244       35.32238        2.16937
C         -2.20097       40.54165        4.51325
C         13.09539       44.66217        4.42072