138
	Energy:    1944.0877107
C          5.39080        3.77914        2.75126
C          4.75899        5.14592        2.59604
C          4.32143        5.92023        3.70223
C          3.08086        6.71020        3.71406
C          2.16764        6.77378        2.63070
C          0.66387        6.75243        2.79429
C         -0.01841        6.52516        4.03370
C         -0.79482        5.27313        4.18867
C         -0.81436        4.34377        3.10047
C         -0.20194        2.96096        3.08153
C          0.37516        2.37814        4.24061
C          1.61606        1.58837        4.22992
C          2.38937        1.33878        3.06732
C          3.90131        1.37385        3.03683
C          4.72846        1.79567        4.12799
C          5.50523        3.04826        3.97769
C          5.49542        3.99622        5.16666
C          4.85212        5.37467        5.00856
C          4.43568        6.04904        6.24113
C          3.18458        6.84917        6.25147
C          2.37876        6.94526        5.03187
C          0.85879        6.92426        5.21272
C          0.35955        6.61778        6.62212
C         -0.42332        5.35010        6.77728
C         -0.62732        4.53163        5.50650
C          0.00408        3.13743        5.49620
C          0.57546        2.66889        6.76188
C          1.82808        1.87083        6.74907
C          2.47799        1.56752        5.47135
C          4.00814        1.60363        5.45598
C          4.67480        2.13138        6.72260
C          5.45985        3.39793        6.56882
C          5.53663        4.30414        7.77644
C          5.04219        5.68276        7.53743
C          2.61305        7.23341        7.55732
C          1.16142        7.07462        7.82105
C          0.67884        6.75563        9.23447
C         -0.11841        5.46635        9.39250
C         -0.33932        4.65391        8.11769
C          0.12838        3.24726        8.04582
C          0.47601        2.47003        9.21889
C          1.72761        1.67525        9.20563
C          2.56099        1.70182        8.02005
C          4.03272        1.88610        8.07088
C          4.68683        2.42612        9.34066
C          5.48955        3.71188        9.18243
C          1.36560       -2.79422       13.96433
C         -0.00127       -2.58777       13.34796
C         -0.28183       -1.53709       12.43575
C         -1.52515       -0.75143       12.44496
C         -2.57850       -0.94128       13.37566
C         -3.34574        0.19030       14.02292
C         -3.01881        1.57866       13.88811
C         -2.53692        2.30710       15.08444
C         -2.40329        1.58747       16.31418
C         -1.11459        1.26812       17.03877
C          0.13799        1.77896       16.60702
C          1.38258        0.99467       16.59580
C          1.46883       -0.36409       16.99388
C          2.29121       -1.40458       16.26651
C          2.96648       -1.18655       15.02178
C          2.48519       -1.91216       13.82351
C          2.36812       -1.10052       12.54256
C          0.98547       -0.89106       11.92337
C          0.84220        0.24654       11.01077
C         -0.41310        1.04059       11.02212
C         -1.48975        0.67537       11.94673
C         -2.25850        1.83039       12.59286
C         -1.69712        3.22674       12.34406
C         -1.21048        3.96201       13.55497
C         -1.33963        3.22296       14.88215
C         -0.02795        2.89742       15.60078
C          1.19087        3.48075       15.03332
C          2.44690        2.68812       15.02439
C          2.44817        1.33165       15.57811
C          3.28667        0.28993       14.83340
C          3.87708        0.73761       13.49939
C          3.38994        0.00330       12.28815
C          3.35876        0.77492       10.98714
C          2.02530        0.81997       10.33720
C         -0.40946        2.36174       10.36155
C         -1.01039        3.54099       11.03303
C         -0.43437        4.93303       10.78461
C          0.05724        5.68221       12.01764
C         -0.08309        4.94760       13.34823
C          1.11858        4.68387       14.17831
C          3.55410        3.14383       14.16080
C          4.28793        2.18044       13.30338
C          4.86367        2.64012       11.96552
C          4.36821        1.89306       10.73275
C          8.64240        8.65276       15.00265
C          7.44115        9.10180       15.80713
C          6.14823        8.54228       15.63411
C          4.90351        9.32503       15.64910
C          4.84628       10.73009       15.83311
C          3.90871       11.64155       15.07228
C          3.07449       11.22923       13.98251
C          3.37657       11.75217       12.62930
C          4.50150       12.62356       12.47360
C          5.78549       12.31641       11.73511
C          5.95420       11.12258       10.98498
C          7.19494       10.33297       10.96686
C          8.36252       10.66514       11.70011
C          9.23087        9.64820       12.40757
C          8.91197        8.25815       12.54664
C          8.61079        7.73752       13.90107
C          7.41154        6.80811       14.01474
C          6.19725        7.26683       14.82452
C          4.92314        6.60867       14.52439
C          3.66822        7.40241       14.53141
C          3.71878        8.83139       14.85066
C          2.76309        9.74141       14.07579
C          2.00574        9.08735       12.92378
C          2.30675        9.61931       11.55586
C          3.33793       10.74201       11.49181
C          4.63726       10.41557       10.75041
C          4.67584        9.13995       10.03008
C          5.92721        8.34068       10.02114
C          7.11154        8.84392       10.72087
C          7.98368        7.80426       11.42832
C          7.41895        6.38822       11.48750
C          7.11956        5.85842       12.85665
C          5.98702        4.86082       12.96847
C          4.90081        5.27491       13.89095
C          3.63311        4.57978       13.97865
C          2.37953        5.37096       13.98323
C          2.46504        6.81658       13.90696
C          1.60277        7.63218       13.01636
C          0.85934        6.96706       11.85980
C          1.16627        7.50690       10.46859
C          2.18072        8.64666       10.40354
C          3.42381        8.47953        9.61066
C          3.58641        7.44477        8.60953
C          4.83346        6.64340        8.60302
C          5.85379        6.92915        9.59225
C          6.56239        5.87067       10.35364
C          5.98185        4.45966       10.41384
C          5.67430        3.92154       11.80558
