6672
	Energy:  458933.7934646
C        343.83323     -136.96751       37.37978
C        341.41950     -138.70883       37.49736
C        344.94593     -135.92037       37.41492
C        340.05818     -138.21134       37.01801
C        344.61381     -133.05193       36.58554
C        337.52997     -136.84293       36.34540
C        337.16384     -135.41728       35.93969
C        344.24625     -131.59173       36.33654
C        341.54493     -130.67280       35.59651
C        336.32663     -132.74239       35.28506
C        337.77417     -132.28552       35.44385
C        340.06671     -130.36774       35.39103
C        343.33551     -137.44805       38.76424
C        341.84395     -137.76283       38.60038
C        344.46890     -134.80352       38.32296
C        339.00344     -138.00017       38.13248
C        344.98912     -133.38426       38.04701
C        338.15563     -136.78430       37.73193
C        343.16605     -131.23974       37.34369
C        336.20851     -134.76502       36.95468
C        342.15237     -130.17491       36.92979
C        335.79174     -133.30353       36.60703
C        339.34326     -130.77777       36.65793
C        337.87789     -131.16573       36.48436
C        343.34248     -136.31854       39.81400
C        341.01463     -138.05651       39.84943
C        344.48885     -135.30405       39.77066
C        339.61647     -137.55804       39.47468
C        344.22480     -132.52107       39.07057
C        337.08755     -136.35975       38.75390
C        343.81178     -131.09494       38.71724
C        336.70527     -134.90724       38.40479
C        341.13562     -130.14540       38.09613
C        337.38553     -131.67948       37.84363
C        339.69872     -129.73994       37.72799
C        335.96002     -132.26636       37.73850
C        342.90013     -136.82471       41.19301
C        341.41440     -137.15113       41.01342
C        344.07725     -134.19397       40.74658
C        338.56033     -137.48662       40.58780
C        344.68189     -132.81494       40.49489
C        337.63789     -136.32843       40.18768
C        342.79347     -130.69785       39.80003
C        335.66603     -134.32446       39.37078
C        341.79428     -129.60837       39.37727
C        335.43684     -132.79864       39.09201
C        337.37865     -130.46525       38.78990
C        338.73932     -129.72707       38.94602
C        342.89696     -135.68733       42.22236
C        340.58817     -137.46270       42.26667
C        344.06467     -134.69627       42.18957
C        339.16787     -137.00551       41.91078
C        344.01747     -131.90202       41.53044
C        336.53506     -135.98154       41.20604
C        343.54821     -130.49915       41.12894
C        336.09351     -134.55736       40.84766
C        339.36513     -129.90826       40.32042
C        335.97647     -131.99187       40.27274
C        340.76467     -129.27918       40.48447
C        336.45174     -130.55144       40.04510
C        342.46432     -136.20006       43.59336
C        340.97966     -136.53319       43.41822
C        343.68481     -133.56279       43.17112
C        344.45405     -132.25056       42.95513
C        338.12436     -136.97611       43.03776
C        337.12135     -135.88408       42.62774
C        342.68902     -129.81555       42.22409
C        341.19436     -129.72240       41.88719
C        335.15425     -133.84154       41.84856
C        335.13565     -132.29381       41.53658
C        337.16290     -130.23551       41.36380
C        338.36892     -129.30234       41.33414
C        343.69377     -134.12410       44.57547
C        342.48070     -135.06079       44.61332
C        340.17579     -136.84409       44.68166
C        338.73880     -136.43826       44.33550
C        344.08351     -131.14529       43.98399
C        336.05631     -135.50290       43.67754
C        342.73554     -130.50058       43.61639
C        335.62700     -134.07667       43.30581
C        340.39467     -128.89341       42.89430
C        338.93656     -129.32907       42.75427
C        335.65200     -131.50595       42.75415
C        336.13827     -130.07862       42.50294
C        342.03901     -135.56418       45.98643
C        340.55705     -135.88167       45.81156
C        343.38794     -133.04476       45.59563
C        337.72146     -136.42993       45.48069
C        344.12397     -131.71286       45.44614
C        336.69334     -135.36713       45.07392
C        342.24978     -129.45796       44.62015
C        340.75947     -129.24883       44.32945
C        334.75449     -133.30289       44.33016
C        334.76984     -131.75858       43.99804
C        337.95468     -128.68958       43.74941
C        336.79916     -129.68385       43.82509
C        343.45670     -133.71005       46.98721
C        342.11090     -134.43572       47.03090
C        339.79372     -136.22229       47.08207
C        338.34623     -135.86161       46.76096
C        343.56356     -130.69335       46.48364
C        342.28192     -129.99835       46.03685
C        335.67022     -134.95557       46.14811
C        335.26733     -133.52777       45.77195
C        340.01992     -128.31040       45.28567
C        338.54415     -128.69335       45.16007
C        335.29281     -130.95539       45.21526
C        335.76410     -129.52228       44.95464
C        341.66753     -134.98239       48.37689
C        343.67682     -132.70544       48.14285
C        340.17439     -135.26473       48.21382
C        337.35106     -135.87906       47.91837
C        343.06095     -131.35235       47.78733
C        336.34027     -134.80983       47.52796
C        341.84654     -128.88571       47.01293
C        340.37300     -128.63886       46.73004
C        334.41523     -132.74836       46.80320
C        334.44004     -131.20482       46.47960
C        337.57205     -128.07576       46.17396
C        336.43208     -129.09641       46.27124
C        343.17901     -133.28514       49.50125
C        339.43889     -135.69382       49.47328
C        341.77593     -133.91796       49.46172
C        337.96967     -135.34261       49.21516
C        342.99034     -130.28708       48.88163
C        341.85158     -129.36477       48.46659
C        335.32265     -134.42432       48.60071
C        334.91345     -132.98899       48.24859
C        339.66721     -127.66354       47.66760
C        338.19213     -128.05077       47.57480
C        334.99019     -130.41755       47.69955
C        335.42952     -128.97127       47.44092
C        341.37981     -134.61457       50.79381
C        343.20765     -132.17919       50.55238
C        339.85815     -134.89930       50.70917
C        342.47700     -130.90227       50.16172
C        336.95848     -135.46924       50.36894
C        335.91879     -134.36319       50.02774
C        341.52691     -128.19666       49.40704
C        340.04573     -127.87167       49.13824
C        334.01216     -132.22976       49.25137
C        337.21473     -127.43091       48.57659
C        334.10787     -130.67698       48.94427
C        336.16543     -128.54607       48.72387
C        339.11333     -135.62677       51.83493
C        342.63097     -132.61056       51.87955
C        341.60698     -133.73705       52.03492
C        337.60902     -135.18579       51.76058
C        342.35910     -129.85496       51.29855
C        334.69717     -134.10321       50.90594
C        341.60550     -128.55935       50.90362
C        343.45591     -134.71562       53.55363
C        339.33802     -126.73003       49.87344
C        341.16653     -135.88293       53.42428
C        344.27380     -133.38844       53.42459
C        334.32848     -132.59806       50.74045
C        341.92345     -134.54170       53.31688
C        344.27727     -130.94562       52.77571
C        337.83686     -127.12608       49.96579
C        339.63518     -135.66308       53.28621
C        344.37670     -128.49307       52.06439
C        343.40580     -132.17969       53.09647
C        334.51849     -129.88151       50.20975
C        335.33236     -128.58606       50.00824
C        343.45874     -129.67849       52.38696
C        339.50334     -138.06665       54.30228
C        337.41749     -137.00613       53.49567
C        343.58744     -127.18795       51.71378
C        335.26668     -135.89224       52.66214
C        336.77369     -135.72131       52.96487
C        345.22619     -135.59294       55.11268
C        343.02060     -136.73316       54.94352
C        346.05020     -134.30651       54.92566
C        340.90620     -137.94269       54.87738
C        346.08025     -131.88846       54.27341
C        338.80664     -136.71152       54.09378
C        342.04704     -127.34536       51.73783
C        343.72300     -135.39360       54.89861
C        334.65512     -134.50936       52.37835
C        346.17673     -129.51918       53.53439
C        341.51823     -136.55471       54.76813
C        345.19017     -133.08366       54.61211
C        341.36848     -126.02586       51.28911
C        346.29715     -127.09846       52.91258
C        337.24778     -139.10155       54.80525
C        345.24183     -130.65223       53.93411
C        345.36810     -128.26780       53.22579
C        339.83227     -126.18422       51.22454
C        338.69278     -138.93726       55.26659
C        335.18048     -137.94261       54.10690
C        345.52716     -125.81790       52.55987
C        333.25801     -132.11559       51.77826
C        332.36706     -135.65704       52.86802
C        336.60589     -137.73995       54.56302
C        335.50548     -126.01011       50.34340
C        332.43087     -130.91100       51.28256
C        334.70650     -127.30977       50.59039
C        333.22183     -127.19339       50.21585
C        332.37617     -133.30855       52.13362
C        333.29251     -129.64162       51.11273
C        336.98367     -126.12534       50.81665
C        333.07853     -136.84211       53.51189
C        332.42447     -128.49872       50.53375
C        334.54845     -136.59281       53.83090
C        344.01085     -126.00690       52.60608
C        333.19199     -134.36494       52.89591
C        343.32521     -124.72506       52.17803
C        337.70093     -124.76935       50.81044
C        339.84306     -123.58649       51.17537
C        339.06444     -124.86023       51.53241
C        341.81141     -124.88195       52.21624
C        341.22908     -123.53365       51.80511
C        330.26150     -134.24630       53.00302
C        331.03514     -135.43027       53.59244
C        330.34660     -131.86355       52.30060
C        333.35991     -124.70519       50.56003
C        335.52790     -123.53611       50.77175
C        331.12929     -132.98806       52.95239
C        334.79564     -124.83662       51.04517
C        330.37617     -129.50597       51.59145
C        331.22104     -130.62326       52.18896
C        332.60503     -125.97162       50.91696
C        331.20349     -128.24100       51.43597
C        337.65622     -122.30998       51.07586
C        331.12556     -125.83849       50.56657
C        330.33529     -127.12440       50.85478
C        336.90825     -123.60159       51.39482
C        339.07429     -122.34678       51.64293
C         29.23338      -30.49940      -17.85243
C         32.17170      -30.39087      -17.18589
C         28.10157      -31.54372      -17.66594
C         33.64381      -30.03619      -16.95458
C         27.97694      -34.18820      -16.32714
C         29.82081      -30.08881      -16.49001
C         34.60570      -32.51069      -15.38383
C         31.20913      -29.43885      -16.46697
C         28.33644      -35.38271      -15.44566
C         27.80695      -31.73866      -16.17294
C         33.92772      -33.82867      -15.01820
C         33.99545      -30.01601      -15.45987
C         30.79960      -36.70548      -14.28426
C         27.23370      -33.04550      -15.60961
C         32.19537      -36.06372      -14.21910
C         33.76932      -31.38956      -14.79753
C         28.73123      -29.42879      -15.62028
C         31.61782      -29.32016      -14.98565
C         27.48976      -30.39790      -15.49284
C         33.11030      -28.96277      -14.78496
C         29.02478      -34.89749      -14.16287
C         33.54213      -33.99422      -13.52197
C         29.71165      -36.04163      -13.40355
C         32.19525      -34.73633      -13.45925
C         27.59498      -32.93801      -14.10783
C         29.30419      -29.07809      -14.22925
C         30.66468      -28.38078      -14.24588
C         33.96615      -31.41072      -13.27411
C         27.95214      -34.20416      -13.32205
C         27.10400      -30.56386      -14.02363
C         33.24223      -32.66488      -12.79773
C         33.46568      -28.88999      -13.29087
C         26.72219      -31.90554      -13.39634
C         30.25451      -35.59936      -11.99710
C         31.66016      -34.92199      -12.01086
C         33.21957      -30.25106      -12.61410
C         28.24616      -28.36320      -13.37605
C         31.09793      -28.22135      -12.78498
C         26.96225      -29.24153      -13.27844
C         32.57986      -27.82443      -12.64066
C         28.49769      -33.75180      -11.93636
C         33.00639      -32.83606      -11.27338
C         29.16402      -34.87499      -11.12629
C         31.68507      -33.60984      -11.16893
C         27.10107      -31.75331      -11.92031
C         28.80954      -27.99807      -11.99378
C         30.13793      -27.27139      -12.06598
C         33.43222      -30.24784      -11.08737
C         27.35120      -33.06471      -11.15933
C         26.27529      -29.33426      -11.91315
C         32.70844      -31.49017      -10.56080
C         32.94360      -27.69479      -11.16325
C         26.14492      -30.74762      -11.25525
C         29.69072      -34.30702       -9.73588
C         31.15960      -33.77718       -9.70594
C         32.70087      -29.04172      -10.45775
C         27.76212      -27.22410      -11.22008
C         30.57081      -27.00845      -10.62451
C         26.77713      -28.30281      -10.89601
C         32.04468      -26.59271      -10.55808
C         27.73383      -32.62871       -9.72338
C         32.53564      -31.59262       -9.01560
C         28.59917      -33.53985       -8.85742
C         31.29145      -32.47647       -8.81515
C         26.39459      -30.59707       -9.73979
C         28.28586      -26.71021       -9.85138
C         29.60304      -26.00236       -9.95113
C         32.89825      -28.96474       -8.94595
C         26.53030      -31.92509       -9.00198
C         25.76221      -28.06055       -9.84372
C         32.16334      -30.19758       -8.39132
C         32.40572      -26.35614       -9.11248
C         25.47214      -29.45762       -9.17215
C         29.11280      -32.51073       -7.76388
C         30.61112      -32.48228       -7.39478
C         32.19556      -27.68089       -8.36497
C         27.19628      -25.89048       -9.15320
C         30.00329      -25.60675       -8.51916
C         26.21480      -26.96844       -8.80102
C         31.48064      -25.20307       -8.55496
C         26.68335      -31.62022       -7.47803
C         32.04171      -30.18194       -6.85309
C         28.04125      -31.90314       -6.75863
C         30.90953      -31.18860       -6.47687
C         25.63095      -29.22553       -7.70001
C         27.62249      -25.16112       -7.81704
C         29.00747      -24.50172       -7.95276
C         32.46124      -27.49535       -6.90128
C         25.64353      -30.54746       -6.90852
C         25.05236      -26.58379       -7.95518
C         31.72306      -28.71157       -6.30088
C         31.88078      -24.81443       -7.16715
C         24.62946      -27.98424       -7.34355
C         28.47165      -30.60344       -5.97728
C         29.89178      -30.75019       -5.33960
C         31.85322      -26.10145       -6.33087
C         26.42405      -24.25610       -7.32990
C         29.39730      -23.74096       -6.62535
C         25.29465      -25.31237       -6.94524
C         24.91388      -19.06085       -6.83670
C         30.99313      -23.57296       -6.62145
C         22.62515      -20.96609       -6.95663
C         25.84228      -30.12355       -5.46045
C         23.19563      -19.39643       -6.72919
C         27.10973      -17.08307       -6.75189
C         25.47396      -21.77926       -6.59972
C         31.61936      -28.60187       -4.79671
C         27.71709      -19.79412       -6.33414
C         25.43931      -17.46224       -6.58591
C         20.87793      -21.20831       -6.82369
C         30.32214      -29.45117       -4.47085
C         20.29130      -22.76915       -6.90843
C         27.35096      -30.09567       -4.95214
C         23.72688      -22.14225       -6.40502
C         26.00377      -20.20477       -6.25128
C         24.48127      -27.68236       -5.93622
C         23.03972      -23.69834       -6.55443
C         26.71794      -22.92524       -6.40675
C         29.86409      -17.74939       -6.18722
C         28.18670      -18.17769       -6.07956
C         28.36507      -22.43925       -6.47181
C         32.36003      -25.81858       -4.95401
C         21.37790      -23.86407       -6.18300
C         18.55826      -22.94994       -6.74348
C         28.85029      -20.93753       -5.81899
C         24.76698      -28.95278       -5.10637
C         20.86680      -25.43209       -6.03964
C         18.06156      -24.53926       -6.68998
C         30.93049      -18.78234       -5.42301
C         24.03143      -24.94103       -6.08004
C         30.55109      -20.43134       -5.70115
C         31.58890      -27.02719       -4.29698
C         31.66191      -21.43797       -4.92283
C         31.60285      -23.05237       -5.29655
C         23.46758      -26.36242       -5.66591
C         27.63689      -28.77253       -4.16392
C         32.60344      -18.26368       -5.34880
C         19.20123      -25.58900       -5.80151
C         29.22966      -28.61385       -3.72912
C         32.25293      -24.20038       -4.40009
C         21.98738      -26.37546       -5.14604
C         33.59386      -19.23658       -4.43900
C         18.88953      -27.19663       -5.58286
C         34.00730      -21.92983       -3.60383
C         33.23811      -20.90653       -4.64049
C         21.80486      -27.83294       -4.54943
C         24.81083      -28.33017       -3.81297
C         31.30518      -26.76015       -2.89384
C         33.57000      -23.62916       -3.70124
C         26.37452      -28.49993       -3.14538
C         20.12426      -28.10673       -4.53250
C         35.23970      -18.68905       -4.24273
C         29.87412      -27.65252       -2.58058
C         33.85252      -24.62814       -2.48893
C         36.14519      -19.70496       -3.29759
C         23.16607      -28.39507       -3.43392
C         32.64555      -26.01164       -2.08237
C         20.03747      -29.71232       -4.30777
C         35.60909      -21.43140       -3.28806
C         23.17274      -29.89031       -2.97080
C         36.28994      -22.48767       -2.22369
C         35.41520      -24.12729       -1.95583
C         26.47551      -29.53477       -2.02668
C         21.47966      -30.45050       -3.24754
C         29.87392      -28.56288       -1.36257
C         24.79852      -30.31392       -2.02204
C         28.23469      -29.57496       -1.26903
C         31.59127      -28.37319       -0.71591
C         33.04965      -27.15654       -1.09574
C         21.55004      -32.05606       -3.01738
C         35.99247      -25.30356       -1.01431
C         34.75388      -26.74983       -0.60502
C         25.02754      -31.85375       -1.76594
C         23.25012      -32.60017       -2.06935
C         28.55852      -31.07004       -0.82193
C         26.84242      -32.07663       -0.92926
C         32.02546      -29.80288       -0.19701
C         35.30225      -28.08667        0.12431
C         33.85387      -29.46836        0.39271
C         30.41041      -31.00736       -0.10802
C          6.92081       41.31290      -14.80045
C          5.56797       42.01342      -14.87567
C          9.33589       42.71993      -13.78013
C         10.42506       43.54085      -13.08110
C          3.05659       43.51560      -14.59007
C          8.79598       41.48739      -12.99356
C          7.30834       41.34109      -13.33850
C          4.48080       41.47545      -13.89344
C          2.67337       44.87141      -14.00467
C          3.62024       42.66732      -13.45206
C         10.06082       46.35144      -11.94365
C          6.43638       40.33652      -12.54451
C          9.89849       43.86333      -11.70018
C          5.03841       40.95770      -12.54596
C          8.75064       41.72186      -11.47684
C         10.39329       45.15918      -11.01523
C          9.65562       47.64274      -11.22002
C          9.87999       42.56094      -10.87298
C          1.79870       47.34408      -12.85214
C          1.68205       44.73338      -12.81492
C          3.22485       47.61409      -12.39329
C          2.51409       42.35445      -12.39315
C          6.78471       40.30510      -11.05104
C          8.26150       40.46601      -10.69232
C          6.93048       48.81142      -11.23081
C          3.94477       40.31850      -11.61917
C          1.25598       46.07885      -12.16014
C          5.45014       49.16004      -11.20297
C          2.11911       43.69564      -11.74799
C          8.54744       47.28036      -10.23551
C          3.00156       41.45968      -11.22093
C          9.57635       45.19026       -9.71525
C          5.91930       39.29060      -10.22382
C          9.41450       42.82591       -9.45296
C          3.27367       47.82360      -10.86483
C          7.52056       48.35533       -9.87600
C          4.49267       39.84657      -10.24352
C          4.72236       48.03883      -10.46472
C          8.20453       40.72846       -9.18397
C          9.16750       46.51900       -9.07839
C         10.01483       44.06617       -8.79749
C          9.36850       41.52861       -8.62046
C          1.37109       46.16142      -10.58985
C          1.06973       43.54675      -10.57995
C          1.87118       41.09117      -10.16973
C          2.77034       46.56313      -10.10353
C          6.26451       39.31076       -8.71119
C          7.73782       39.49176       -8.36531
C          6.49439       47.63396       -8.93767
C          3.42730       39.15900       -9.29393
C          0.84981       44.89327       -9.81881
C          5.05095       48.14303       -8.96120
C          1.42284       42.41378       -9.53419
C          8.14076       46.13991       -7.98793
C          2.37823       40.23038       -8.95588
C          9.32587       44.12204       -7.45824
C          5.45074       38.30296       -7.82343
C          8.97931       41.83167       -7.17284
C          7.14141       47.23015       -7.59746
C          2.76419       46.84030       -8.54978
C          3.99093       38.76712       -7.88028
C          7.73603       39.79413       -6.85014
C          4.10907       47.33946       -7.97955
C          8.91377       45.45717       -6.85695
C          9.81752       42.97178       -6.61440
C          1.31437       44.75413       -8.29448
C          8.97226       40.53960       -6.37338
C          0.49715       42.33499       -8.20705
C          1.28395       39.83981       -7.84634
C          4.74076       46.36219       -6.94009
C          1.87820       45.95940       -7.54498
C          7.30617       38.58452       -5.98306
C          5.81877       38.39570       -6.29491
C          2.98536       38.01258       -6.91097
C          6.14461       46.75751       -6.47882
C          0.54270       43.68592       -7.39913
C          0.83400       41.15769       -7.18899
C          1.82055       38.98133       -6.62552
C          8.11440       45.27452       -5.54896
C          9.60530       43.21088       -5.13937
C          6.62310       45.52931       -5.65053
C          5.09968       37.34406       -5.40064
C          8.78681       40.81838       -4.89162
C          2.59154       45.35954       -6.21924
C          3.57391       37.67548       -5.47034
C          8.25830       43.87484       -4.88916
C          3.80946       46.10008       -5.67900
C          7.49097       38.85602       -4.43341
C          9.76969       41.86910       -4.40193
C          8.87513       39.46717       -4.17384
C          1.07803       43.45672       -5.85275
C          0.04702       41.11505       -5.74339
C          0.75432       38.54751       -5.49433
C          1.70774       44.63919       -5.09190
C          7.16683       37.59979       -3.62592
C          4.49270       45.18723       -4.52800
C          5.59226       37.36720       -3.87638
C          5.95631       45.48408       -4.25104
C          2.61232       36.78718       -4.56653
C          0.32049       42.41809       -4.88579
C          0.27015       39.84543       -4.78810
C          8.02644       44.08557       -3.41342
C          1.27729       37.58761       -4.32901
C          9.52120       39.54160       -2.73906
C          6.54405       44.34723       -3.29603
C          9.62909       42.12528       -2.92458
C          4.90742       36.20326       -3.11080
C          2.50788       44.04279       -3.74342
C          3.22423       36.32381       -3.15690
C          8.40251       42.85811       -2.52856
C          3.70763       44.86313       -3.19333
C          7.71571       37.63797       -2.08756
C          9.59887       40.89524       -2.04993
C          9.15413       38.49276       -1.71774
C          0.96138       42.11189       -3.34530
C         -0.30982       39.81200       -3.23082
C          0.20951       37.11790       -3.20028
C          7.62914       36.13811       -1.59086
C          5.83982       35.47283       -1.96713
C          1.73061       43.27653       -2.56739
C          2.19991       35.31677       -2.34992
C          6.11759       44.43312       -1.81961
C          4.60688       44.05927       -2.00105
C          0.18217       41.08350       -2.35696
C         -0.38824       38.39126       -2.40942
C          4.92382       33.98664       -1.88098
C          8.58575       43.29467       -1.06326
C          0.48491       35.72521       -2.37564
C          5.71269       29.99720       -3.15302
C         10.43096       41.22396       -0.77551
C         10.27702       38.55082       -0.42005
C          7.07927       43.51020       -0.76370
C          7.61594       30.22665       -3.36985
C          2.77569       28.41558       -3.47279
C          8.15109       32.97333       -2.10527
C          4.58416       28.69135       -3.81339
C          2.97586       33.86174       -2.08386
C          2.64650       42.78459       -1.17369
C         10.84164       31.59951       -2.85293
C          2.84079       31.13545       -2.49780
C          9.39223       35.81465       -1.04560
C          9.58155       42.31761       -0.05287
C         11.71197       34.27908       -1.46633
C          3.97363       43.65586       -0.62273
C          6.04916       32.72000       -2.17246
C         11.21424       40.05254        0.02157
C         14.15012       32.77324       -2.31494
C          8.89061       31.52450       -2.71850
C          4.81624       31.35694       -2.66044
C         -0.02748       29.44922       -2.70285
C          9.73971       34.23603       -1.52361
C          0.70163       40.83351       -0.74530
C         10.90169       37.05779       -0.47512
C          1.80130       29.75962       -3.05764
C         -0.90657       35.25175       -1.40850
C          1.78009       32.47448       -2.13697
C         12.24277       32.81702       -2.19912
C         -0.21138       32.27754       -1.86984
C         -0.99211       38.27335       -0.85335
C         13.22242       35.54461       -0.80278
C         15.55292       33.96511       -1.69878
C          1.86385       41.99790       -0.00589
C          6.89518       43.60956        0.74633
C          5.15429       43.24083        0.69750
C         -2.89493       30.28732       -1.78322
C         -1.10826       30.73350       -2.23755
C         -0.26531       39.68505        0.11212
C         12.84509       37.13374       -0.13195
C         -1.46566       33.55001       -1.39839
C         -1.73933       36.58966       -0.58996
C         15.12712       35.42395       -0.84452
C         -4.01032       31.49263       -1.15448
C         10.19703       42.88969        1.34188
C         14.44184       38.42139        0.62978
C         12.54298       40.79513        1.15144
C         16.63808       36.57944       -0.17927
C          8.51899       43.43876        1.80179
C          2.63274       42.12094        1.64545
C         -3.19945       33.13872       -0.81332
C         14.32472       40.16133        1.35589
C          4.54299       43.03994        2.16820
C         12.08207       42.37646        1.89126
C         -4.11953       34.42197        0.07912
C         -5.69993       30.86189       -0.60313
C         16.36288       38.09978        0.67869
C         15.94976       41.15086        2.20844
C         -0.46110       40.15566        1.79286
C         18.03461       39.11122        1.40646
C         -3.19986       36.16855        0.40191
C         -6.70782       32.02366        0.25195
C          1.12370       41.50763        2.55650
C         -3.57226       37.47197        1.72518
C          8.44393       44.03309        3.32077
C         15.65305       42.73965        3.07591
C         17.89413       40.67244        2.26145
C          6.25404       43.74459        3.38359
C         -5.81726       33.78449        0.66712
C         13.58360       43.20250        2.98199
C         19.71021       41.48919        2.99923
C         -2.18787       39.20946        2.35790
C         -6.56865       34.99336        1.76644
C         -2.50826       40.29645        3.80882
C         12.93678       44.52165        4.10372