312
	Energy:    5826.1909808
C         -7.54582        3.81723       -0.39801
C         -9.05455        3.62170       -0.61801
C         -9.63929        2.41712        0.09021
C        -10.46478        1.51520       -0.79776
C        -10.63998        1.95133       -2.31398
C         -9.91468        1.05536       -3.35920
C         -9.11271       -0.11001       -2.66133
C         -7.59184       -0.00018       -2.68497
C         -7.00915        1.26832       -3.39363
C         -6.25500        2.19129       -2.31551
C         -6.27713        1.69287       -0.86233
C         -6.89988        2.58923        0.17995
C         -7.47887        1.95244        1.37190
C         -8.97470        1.85245        1.33002
C         -9.55521        0.65927        2.02059
C        -10.30682       -0.31838        1.07425
C        -10.39861        0.07406       -0.41152
C         -9.67671       -0.80626       -1.39990
C         -8.92940       -1.97142       -0.76052
C         -7.38467       -1.89175       -0.82669
C         -6.84804       -0.64652       -1.49045
C         -6.15796        0.27714       -0.53586
C         -6.02601       -0.12124        0.92082
C         -6.73428        0.79796        1.96767
C         -7.31403        0.20188        3.24636
C         -8.81226        0.13290        3.28067
C         -9.42644       -1.07118        3.74022
C        -10.15227       -2.02066        2.81580
C        -10.31141       -1.80474        1.40650
C         -9.58646       -2.67687        0.44228
C         -8.71672       -3.68585        0.96128
C         -7.21148       -3.63861        0.89288
C         -6.52968       -2.52914        0.30441
C         -5.81366       -1.58967        1.21739
C         -5.81462       -1.81273        2.63332
C         -6.54305       -0.94067        3.63594
C          0.68262        3.77403        2.15999
C         -0.03390        4.57664        3.22506
C         -1.24815        5.29772        2.96315
C         -1.19873        6.79193        2.91032
C          0.06913        7.43784        3.09636
C          0.84415        8.10026        1.98064
C          0.35313        8.15266        0.63266
C          1.03277        7.34408       -0.41978
C          2.15739        6.53370       -0.05294
C          2.13935        5.02422        0.00317
C          0.94907        4.28687       -0.30587
C          0.20199        3.64101        0.81426
C         -1.32472        3.78396        0.75497
C         -2.06085        4.61813        1.83776
C         -3.33732        5.29894        1.35053
C         -3.30083        6.81432        1.30236
C         -1.97686        7.44666        1.73934
C         -1.18965        8.13775        0.59273
C         -1.87048        8.10551       -0.78111
C         -1.21225        7.24201       -1.81607
C          0.10232        6.58120       -1.38698
C          0.07980        5.03741       -1.35066
C         -1.25627        4.42408       -1.74705
C         -1.98707        3.75174       -0.62264
C         -3.47772        3.79909       -0.76519
C         -4.19793        4.62606        0.27522
C         -5.45948        5.30572       -0.23823
C         -5.44042        6.78342       -0.29124
C         -4.14540        7.46080        0.17995
C         -3.38088        8.18050       -0.91587
C         -4.02494        8.13395       -2.36402
C         -3.28401        7.20108       -3.34952
C         -2.11358        6.59656       -2.88773
C         -2.10860        5.05033       -2.88260
C         -3.29196        4.45703       -3.31560
C         -4.10431        3.76642       -2.20377
C        -11.07893        5.16083       -0.56038
C        -11.10714        6.63601       -0.59870
C        -12.41118        7.26314       -0.13065
C        -13.28141        7.81537       -1.24418
C        -12.65650        7.83851       -2.70470
C        -13.65672        7.21146       -3.88897
C        -14.91231        6.49957       -3.20667
C        -14.89017        4.96013       -3.20492
C        -13.59753        4.30170       -3.85068
C        -12.57396        3.85049       -2.62505
C        -13.19158        3.88182       -1.19293
C        -12.35331        4.49290       -0.09351
C        -13.09845        5.10425        1.05762
C        -13.13698        6.61683        1.04319
C        -14.41232        7.22348        1.56402
C        -15.30666        7.85861        0.46489
C        -14.77047        7.81035       -0.98023
C        -15.63848        7.13209       -2.00636
C        -16.89045        6.46049       -1.42642
C        -16.85746        4.90547       -1.42272
C        -15.57427        4.30720       -1.98868
C        -14.65704        3.75074       -0.93516
C        -15.17583        3.68631        0.50261
C        -14.32648        4.41138        1.58563
C        -15.01491        5.04681        2.80570
C        -15.06517        6.54497        2.79405
C        -16.29869        7.19398        3.11488
C        -17.15714        7.87687        2.07475
C        -16.82237        7.93525        0.67963
C        -17.65757        7.19309       -0.30451
C        -18.72417        6.37537        0.19223
C        -18.70116        4.86610        0.20729
C        -17.56867        4.13515       -0.27983
C        -16.67494        3.48177        0.72016
C        -16.99723        3.54593        2.11621
C        -16.19320        4.30767        3.14657
C         -6.20805       14.07952        2.08195
C         -6.95300       13.25131        3.11294
C         -7.66417       12.06073        2.75515
C         -9.16491       12.06054        2.74484
C         -9.84874       13.26602        3.08999
C        -10.55400       14.11580        2.05746
C        -10.61419       13.80218        0.65769
C         -9.89345       14.65775       -0.32345
C         -9.09061       15.72899        0.17927
C         -7.58379       15.73810        0.17632
C         -6.83429       14.62562       -0.32003
C         -6.13825       13.76713        0.68198
C         -6.29047       12.28051        0.46183
C         -7.01503       11.41143        1.53473
C         -7.68435       10.19293        0.98896
C         -9.18753       10.19034        0.94053
C         -9.83287       11.41459        1.50007
C        -10.50710       12.30122        0.42145
C        -10.45917       11.79945       -1.03732
C         -9.82376       12.68403       -2.05612
C         -9.15768       13.92068       -1.46582
C         -7.60970       13.89156       -1.45953
C         -7.00534       12.61748       -2.02985
C         -6.33438       11.78235       -0.98083
C         -6.38645       10.34248       -1.21968
C         -7.03783        9.50865       -0.14328
C         -7.58792        8.20507       -0.62387
C         -9.13014        8.24039       -0.78692
C         -9.80546        9.49214       -0.25870
C        -10.48370       10.33490       -1.33921
C        -10.61626        9.78925       -2.62968
C        -10.00906       10.68162       -3.84329
C         -9.22168       11.93799       -3.25573
C         -7.69167       11.85795       -3.22542
C         -7.04096       10.54513       -3.84461
C         -6.25379        9.73343       -2.63902
C         -6.42976        4.52514       -1.14980
C         -5.67695        3.61819       -2.27757
C        -10.15259        4.34320       -1.41824
C        -11.01544        3.44862       -2.51578
C        -10.19923        7.43277       -1.51309
C        -11.05085        8.25794       -2.65759
C         -6.40027        7.49188       -1.27223
C         -5.62727        8.31773       -2.44979
C        -16.25781        4.09889      -13.95344
C        -16.18748        6.98135      -14.02383
C        -15.04710        4.76884      -13.57940
C        -15.01682        6.26814      -13.60517
C        -17.16037        3.42947      -12.94065
C        -17.05926        7.75980      -13.06185
C         -9.88112       12.16005      -14.04911
C        -14.44190        4.11901      -12.30478
C        -14.39739        6.93764      -12.35194
C        -10.23204       -2.01447      -12.91506
C         -9.15250       11.04835      -13.52122
C         -9.45833       -0.84036      -12.65529
C        -13.20014        4.75488      -11.71770
C        -13.19622        6.27183      -11.71984
C         -7.65566       11.12380      -13.42695
C         -6.99844       12.31261      -13.87055
C         -9.85871       10.52272      -12.26365
C        -10.71880       13.07625      -13.17877
C        -16.88689        3.39983      -11.52806
C         -7.35040       -2.19900      -12.88924
C         -7.96220       -0.93159      -12.63717
C        -16.79507        7.85983      -11.65078
C         -9.18112        9.41621      -11.52990
C        -15.37997        3.48512      -11.23993
C        -11.03075       -2.73391      -11.84626
C        -10.07555       -0.06449      -11.48464
C        -15.30179        7.70247      -11.34505
C        -18.83175        4.93826      -11.15673
C        -18.81326        6.44712      -11.19804
C         -9.34579        1.14933      -11.01987
C         -7.68759        9.48631      -11.42014
C         -7.04654       10.66103      -12.08292
C         -9.84611        8.86375      -10.33131
C        -12.50933        4.11737      -10.50610
C        -10.67842       11.48394      -11.34567
C        -12.51484        6.91426      -10.51932
C         -7.26081       -0.23633      -11.44878
C         -7.84317        1.06306      -10.96960
C        -10.86758       12.92556      -11.75723
C        -17.76433        4.15917      -10.59495
C         -9.26059        7.67909       -9.63674
C         -1.28214        6.37654      -12.26967
C        -17.71572        7.20852      -10.67490
C         -0.08590        7.13914      -12.45807
C        -10.83205       -0.82274      -10.35737
C         -6.39198       13.31219      -12.91071
C         -9.95676        1.96583       -9.92397
C        -11.25560        4.78186       -9.95901
C        -11.30245        6.24668       -9.91788
C         -6.68577       -3.02218      -11.80989
C         -1.19364        4.88604      -12.21999
C         -3.44296        6.31888      -10.79897
C        -11.08148       -2.31336      -10.47568
C         -2.16543        7.03192      -11.19272
C         -7.74702        7.75374       -9.47841
C        -11.24265        3.33388       -7.76802
C        -14.90037        3.55822       -9.76007
C         -9.27513        3.23862       -9.52750
C         -7.12590        8.96782      -10.12671
C         -3.37784        4.80712      -10.78267
C         -5.66914        6.25340       -9.39523
C        -10.59571        9.78464       -9.40774
C          0.09419        4.26852      -12.32966
C        -14.84631        7.70422       -9.86069
C         -4.36651        6.94432       -9.76999
C        -13.41368        3.55738       -9.42377
C        -10.38692        4.07023       -8.93314
C        -13.38165        7.62769       -9.51102
C        -10.70729       11.17236       -9.84374
C         -5.65321        4.75946       -9.43970
C        -11.27568        7.91155       -7.87873
C         -2.01196        4.21459      -11.10408
C         -7.17170        1.81159       -9.84073
C         -7.73229        3.14040       -9.37327
C        -10.41996        7.00202       -8.93641
C         -6.44758       11.69565      -11.08732
C        -17.04418        4.92326       -9.44617
C         -6.63967        3.94188       -8.60983
C        -17.03584        6.47388       -9.47469
C        -10.63767        1.20237       -8.80234
C         -4.26726        4.14534       -9.73945
C          0.55162        7.99606      -11.38911
C         -6.58579       -1.08176      -10.33335
C         -6.40061       13.16221      -11.48332
C        -10.73522       -0.21958       -8.94524
C        -10.27139       13.92420      -10.82238
C         -6.59820       -2.60393      -10.44147
C         -9.51507       14.99004      -11.39640
C         -5.88120        3.18147       -7.36538
C         -6.70378        7.06920       -8.60387
C         -1.50882        7.87962      -10.07044
C        -15.80096        4.27673       -8.78549
C         -6.00263        8.02983       -7.44846
C        -15.78590        7.10870       -8.84008
C         -9.74090       -4.31767       -9.81541
C        -10.44994       -3.14860       -9.40966
C        -10.74659        9.36388       -7.90957
C         -3.71118        7.71347       -8.64930
C         -8.01314       15.06841      -11.31186
C         -6.50557        9.94121       -9.15064
C          0.82920        3.62325      -11.17893
C         -8.23409       -4.40317       -9.81515
C        -12.84648        3.60769       -7.91955
C          0.01253        8.10416      -10.06666
C         -6.53148       11.36093       -9.58900
C        -12.84198        7.67278       -8.01205
C         -7.22114       14.07832      -10.64601
C        -10.14631       12.16250       -8.86611
C         -6.45309        1.01566       -8.76736
C         -1.26405        3.59319       -9.89454
C         -9.54363       13.36524       -9.55679
C        -10.72091        1.89038       -7.52399
C         -7.39207       -3.31959       -9.40554
C         -2.21721        7.86733       -8.72579
C         -6.56378       -0.47175       -8.93009
C         -3.53142        3.58422       -8.53289
C        -15.09906        4.94195       -7.54346
C         -4.45978        7.73335       -7.27659
C         -9.63946       -2.38366       -8.32643
C        -10.18943       -1.07244       -7.85112
C        -15.11098        6.47491       -7.55741
C         -7.99912       13.43143       -9.47491
C          0.28211        3.59185       -9.85688
C         -6.46268        9.52618       -7.62921
C         -8.09116       -2.44136       -8.35500
C         -7.32281       12.28495       -8.70706
C        -10.14641       10.37719       -6.79868
C        -13.81230        4.26713       -6.82813
C         -2.00578        3.65433       -8.57258
C         -9.51322       11.58879       -7.54556
C        -13.82482        7.15495       -6.87583
C         -7.36930       -1.18100       -7.87632
C         -6.33237        1.67188       -7.33432
C         -4.31595        3.60425       -7.17939
C          0.75920        7.49226       -8.92612
C         -7.99521       11.63814       -7.45506
C         -9.50091       -0.28652       -6.73194
C        -10.14892        1.04113       -6.24462
C         -1.44352        7.30301       -7.57053
C          1.95962        6.76317       -9.19750
C         -7.22125       10.49956       -6.59482
C          0.92363        4.42569       -8.79913
C         -7.97233       -0.30746       -6.76944
C         -3.58974        7.23656       -6.04752
C          2.04567        5.25371       -9.13510
C         -0.09806        6.72185       -7.91561
C         -1.33261        4.46401       -7.50450
C         -7.19900        0.95913       -6.22941
C         -0.03847        5.16672       -7.87909
C         -2.26415        6.62634       -6.51572
C         -3.52282        4.39601       -6.02401
C         -2.24021        5.10593       -6.51901
C         -9.40543        1.54198       -4.81733
C         -7.73785        1.57813       -4.85356
C         -7.74083       10.07442       -5.33502
C         -9.41780       10.12206       -5.29868
C         -3.94095        5.01118       -4.63588
C         -3.95830        6.60940       -4.64393
C        -13.32524        6.55665       -5.39218
C        -13.30195        4.92455       -5.37069
