234
	Energy:    4189.0941882
C         -6.25266       -2.86125        5.12913
C         -7.68217       -2.94432        5.19937
C         -8.39494       -4.16901        4.90941
C         -9.16837       -4.86273        6.02399
C         -9.01810       -4.03832        7.36693
C         -7.95569       -4.40304        8.49030
C         -5.06591       -4.19145        8.28410
C         -4.34374       -3.66408        6.96350
C         -4.53357       -2.08314        6.73114
C         -5.57553       -1.70908        5.70462
C         -6.33207       -0.42519        5.77804
C         -7.83731       -0.52688        5.89266
C         -8.41273       -1.90802        5.91782
C         -9.14013       -2.43793        7.13554
C         -9.06938       -1.46931        8.27822
C         -8.05892       -1.83641        9.33648
C         -7.29593       -3.15648        9.16309
C         -5.78375       -3.04781        9.06561
C         -5.20493       -1.62132        9.10608
C         -4.50972       -1.11763        7.86500
C         -4.68208        0.38713        7.55214
C         -5.67968        0.74957        6.40511
C         -6.45956        2.07419        6.39394
C         -7.95004        1.96831        6.53121
C         -8.52143        0.54482        6.65776
C         -9.19715        0.04454        7.97481
C         -9.20951        0.99000        9.16672
C         -8.27012        0.61764       10.26185
C         -7.41786       -0.65494       10.04909
C         -5.87944       -0.53901        9.92649
C         -5.20423        0.85607        9.98194
C         -4.57119        1.34719        8.72371
C         -4.82817        2.69046        8.28674
C         -5.75127        3.06151        7.14627
C         -8.63384        2.84803        7.42632
C         -9.24805        2.35297        8.71710
C         -7.49395        1.64865       10.87486
C         -5.99903        1.76785       10.74085
C         -5.41520       -3.95509        4.67628
C         -4.29690       -4.43746        5.60304
C         -3.89905       -3.12056        2.90808
C         -2.69964       -3.58479        3.70011
C         -2.50137       -1.92302        1.12553
C         -1.23587       -2.48160        1.84763
C         -5.13015       -3.81493        3.25985
C         -1.10658       -0.83843       -0.54415
C          0.11298       -1.44104        0.12346
C         -3.00638       -4.74254        4.77282
C         -3.77254       -2.57671        1.52323
C         -1.47278       -3.62659        2.85167
C         -2.42629       -1.32331       -0.28606
C          0.06167       -2.52852        1.05838
C         -5.93168       -4.40153        2.22149
C         -2.61449       -6.17801        4.23461
C         -4.57191       -3.26554        0.43976
C         -1.12872       -5.00868        2.35313
C         -3.16297       -2.06120       -1.36963
C          0.45962       -3.89395        0.60649
C         -7.01542       -5.31106        2.50756
C         -5.40053       -4.43281        0.86448
C         -2.01840       -6.15587        2.81100
C         -3.98041       -3.28703       -0.91636
C         -0.48624       -5.05088        0.98756
C         -2.47252       -2.39455       -2.56720
C          0.93030       -4.06503       -0.72974
C         -6.88323       -6.76607        2.07658
C         -5.08871       -5.83614        0.37403
C         -2.82903       -6.85102        1.73410
C         -3.56021       -4.71161       -1.40997
C         -1.29195       -5.78186       -0.11355
C         -2.12110       -3.51798       -2.93367
C         -5.45715       -7.01771        1.41140
C         -4.14260       -7.54132        2.18127
C          0.17440       -4.79953       -1.80867
C         -3.82878       -5.87184       -0.43897
C         -2.62216       -6.37405        0.30876
C         -2.29564       -4.77082       -2.26996
C         -1.11261       -5.38291       -1.59059
C        -13.07233       -4.74438       -2.06574
C        -12.87701       -3.29812       -1.66078
C        -11.17283       -5.47182       -0.73946
C        -11.00204       -3.99331       -0.27339
C         -9.10879       -6.22729        0.69226
C         -9.05024       -4.79728        1.18717
C        -12.50428       -5.86089       -1.36449
C        -12.09166       -2.93811       -0.52196
C        -10.46142       -6.54504        0.11888
C        -10.17650       -3.83833        0.94953
C         -8.29940       -7.30361        1.60172
C         -8.30061       -4.64966        2.42654
C        -13.38453       -6.68368       -0.48785
C        -12.77239       -2.38221        0.69291
C        -11.36072       -7.31583        1.05388
C        -10.87129       -3.28302        2.17421
C         -9.27923       -8.11530        2.55438
C         -8.96917       -4.12560        3.58519
C        -14.77633       -6.37112       -0.42251
C        -14.19284       -2.23018        0.69966
C        -12.84425       -7.02372        0.91432
C        -12.30610       -2.93314        2.04523
C        -10.77977       -7.72891        2.40134
C        -10.36890       -3.74501        3.49783
C        -15.47939       -5.81909        0.79109
C        -15.10866       -3.07704        1.55839
C        -13.55006       -6.45276        2.16700
C        -13.25341       -3.76827        2.96464
C        -11.47265       -7.16450        3.62855
C        -11.25522       -4.48504        4.47592
C        -14.78828       -5.53937        2.00999
C        -14.63188       -4.11573        2.42847
C        -12.67102       -6.24955        3.38176
C        -12.57291       -4.82380        3.86377
C        -10.60876       -7.03881        4.90779
C        -10.48139       -5.52262        5.44165
C         -7.20854       -5.80206        8.72563
C         -5.57235       -5.68941        8.64746
C         -9.72205       -8.34540        5.20844
C         -3.12302       -7.60343        4.69869
C         -8.92600       -8.92592        3.87540
C         -3.97347       -8.39412        3.51787
C          2.35827      -13.01762        4.33646
C          1.59226      -13.74462        3.25888
C          1.93597      -13.78775        7.06028
C         -0.22402      -15.86243        3.95943
C          1.15530      -14.69419        7.35729
C         -0.37462      -16.21134        5.42680
C          1.76286      -12.07505        5.23106
C          1.64257      -12.44295        6.67494
C          0.19534      -13.55087        3.03165
C         -0.74180      -14.66467        3.36059
C          0.53893      -11.39851        4.57978
C         -1.05569      -15.34842        6.34153
C         -0.23694      -12.13016        3.46103
C         -0.26482      -14.62141        7.39431
C          0.33027      -12.00563        7.32928
C         -0.67721      -13.15681        7.66150
C         -2.00909      -14.22622        4.07296
C         -2.12200      -14.52946        5.60011
C         -0.25212      -10.39776        5.40359
C         -0.28879      -10.66595        6.88760
C         -1.70134      -11.76934        3.33172
C         -2.65581      -12.91161        3.58767
C         -1.43380       -9.64759        4.79060
C         -2.85331      -13.49604        6.37531
C         -2.18536      -10.35726        3.67933
C         -2.09969      -12.78607        7.47898
C         -1.55304      -10.21549        7.55911
C         -2.50844      -11.37502        7.77032
C         -3.94416      -12.48579        4.20757
C         -3.94157      -12.73009        5.69844
C         -2.21695       -8.56782        5.58798
C         -2.26582       -8.82043        7.16180
C         -3.67108       -9.95367        3.48621
C         -4.67848      -11.13110        3.74979
C         -4.60048      -11.67306        6.45101
C         -3.89875      -11.01825        7.51438
C         -3.55068       -8.53771        8.04232
C         -3.63689       -7.73266        9.41691
C         -4.39910       -9.80475        8.12621
C         -6.04254      -10.91912        4.47301
C         -3.46181       -8.75655       10.66143
C         -5.88977      -11.22376        5.96124
C         -3.47900       -8.22445       12.04295
C         -4.28869      -10.02833       10.57446
C         -4.79513       -6.63727        9.70602
C         -3.32893       -9.20629       13.22024
C         -7.42877      -11.40650        3.95106
C         -5.08620      -10.11015        9.36035
C         -6.94794      -11.96553        6.61129
C         -7.72183      -12.89759        4.45081
C         -8.74672      -10.51577        3.87303
C         -7.42740      -13.14655        5.91143
C         -3.26706       -8.59272       14.60640
C         -5.31745       -6.68172       10.99519
C         -4.52708       -7.16919       12.21431
C         -4.07382      -10.57210       13.06960
C         -3.22366       -9.63057       15.59586
C         -4.82705      -10.70363       11.79723
C         -6.51094      -10.26013        9.45841
C         -7.65742      -11.48269        7.75968
C         -7.40433      -10.17270        8.32663
C         -8.92547      -13.64056        3.99896
C         -9.12501      -15.07933        4.51239
C         -8.17248      -14.16130        6.70106
C        -10.02678      -11.29681        4.24408
C        -10.16671      -12.78783        3.91877
C         -5.08816       -7.03735       13.61598
C         -8.70727      -15.35034        5.99351
C         -4.18805       -7.43870       14.80665
C         -3.87058      -10.99284       15.46046
C         -4.61774      -11.33373       14.28917
C        -10.22290       -9.51878        6.17071
C         -6.84387       -6.68554       11.14195
C         -8.52881       -9.14310        8.36086
C         -6.33189      -10.82295       11.90259
C         -7.66416       -6.84185        9.82411
C         -8.42376       -8.26225        9.68433
C         -7.13426      -10.28135       10.77115
C         -4.90744       -7.33745       16.03455
C        -10.31943      -15.83630        3.96516
C        -10.79750      -10.78212        5.44662
C         -8.94015      -13.65510        7.90242
C         -8.86608      -12.18192        8.18123
C        -10.41229      -17.12021        4.59875
C         -9.40252      -16.41642        6.84738
C        -11.45210      -13.51952        4.22118
C        -11.55054      -15.00838        3.80739
C         -9.96477      -17.43271        6.01203
C         -9.83393       -9.76571        7.69359
C         -6.62366       -7.10607       13.74620
C         -8.16487       -9.19331       10.96740
C         -8.10522       -8.62675       12.34581
C         -6.11003      -11.45557       14.38669
C         -7.37784       -7.30309       12.44664
C         -6.92409      -10.80509       13.26033
C        -11.63675      -11.81937        6.19021
C        -10.10118      -11.30742        8.13699
C         -6.40458       -7.44709       16.16462
C         -7.89009       -9.60429       13.52201
C         -7.91953       -9.00969       14.91909
C        -10.18014      -14.39119        8.25214
C        -10.17905      -15.91406        8.02818
C        -12.24354      -13.00127        5.44490
C         -7.25197       -7.68087       15.03760
C        -12.79804      -15.55720        4.22867
C         -6.75409      -11.23047       15.64211
C        -11.29381      -12.07813        7.63691
C         -7.63625      -10.02649       15.89104
C        -13.14388      -13.97085        6.23568
C        -11.48163      -13.54320        8.10423
C        -11.48318      -16.43918        8.27910
C        -13.58459      -15.05343        5.41135
C        -12.74269      -14.26099        7.64100
C        -12.74418      -15.62404        8.09345
