7584
	Energy:  584658.4118330
C        298.79290      -49.33839       57.40767
C        297.59271      -46.99248       56.01910
C        299.24695      -50.51728       58.26786
C        297.23314      -45.71876       56.77989
C        299.49438      -50.44744       61.26119
C        296.33821      -43.55762       58.58132
C        296.34969      -43.35712       60.09486
C        299.36934      -50.33113       62.77779
C        298.48378      -47.89332       64.17861
C        296.20213      -42.90770       62.93398
C        296.78537      -44.30123       63.15138
C        297.85011      -46.61604       64.71472
C        297.40802      -49.50561       56.73723
C        296.79227      -48.10336       56.66483
C        298.12038      -50.81112       59.23942
C        295.71614      -45.43388       56.90904
C        298.48942      -51.41829       60.60186
C        295.49028      -44.78611       58.28270
C        297.91591      -50.00194       63.06806
C        294.92614      -43.20167       60.65846
C        297.62872      -49.17528       64.31981
C        294.85843      -42.99531       62.20228
C        296.43890      -46.55050       64.16631
C        295.85217      -45.14954       64.02136
C        296.41513      -50.27920       57.62806
C        295.32921      -47.96526       56.24710
C        296.95637      -51.44020       58.46733
C        294.86179      -46.71285       56.99327
C        297.13872      -51.47349       61.34314
C        294.02367      -44.49018       58.63895
C        297.08121      -51.25958       62.85318
C        293.97624      -44.31009       60.16966
C        296.10553      -48.90883       64.25729
C        294.49465      -45.30156       63.32278
C        295.62118      -47.60702       64.91706
C        293.89038      -43.92503       62.96567
C        295.06648      -50.48464       56.92629
C        294.46823      -49.07694       56.84484
C        295.80753      -51.82132       59.41022
C        293.35878      -46.39583       56.98715
C        296.20441      -52.50280       60.71741
C        293.09889      -45.67307       58.31473
C        295.59206      -51.02978       63.16415
C        292.55671      -44.04485       60.68674
C        295.31764      -50.21632       64.43971
C        292.52335      -44.04435       62.25432
C        293.57371      -46.03051       64.31793
C        294.08610      -47.41084       64.82077
C        294.08474      -51.24126       57.83013
C        293.00498      -48.93967       56.40845
C        294.63057      -52.42034       58.64170
C        292.51398      -47.66907       57.11375
C        294.89136      -52.65865       61.49124
C        291.62458      -45.32937       58.60094
C        294.84718      -52.36839       62.99566
C        291.55657      -45.08877       60.11395
C        293.27183      -48.58141       64.29147
C        291.73140      -45.26036       62.73421
C        293.80853      -49.97463       64.68168
C        292.03395      -45.85861       64.11374
C        292.74862      -51.44946       57.12223
C        292.14781      -50.04341       57.03322
C        293.49138      -52.83597       59.60193
C        293.95111      -53.65892       60.81507
C        291.00997      -47.36046       57.06239
C        290.72249      -46.55078       58.33850
C        293.40347      -52.34049       63.56114
C        292.89261      -50.93789       63.91884
C        290.14722      -44.95375       60.74000
C        290.25061      -45.11834       62.30697
C        291.26341      -47.18094       64.06657
C        291.83241      -48.38121       64.81608
C        292.36416      -53.42106       58.78072
C        291.78491      -52.21821       58.02709
C        290.68765      -49.93017       56.59244
C        290.18463      -48.63924       57.24814
C        292.77957      -54.09969       61.73738
C        289.23817      -46.26192       58.64680
C        292.31827      -52.92449       62.61711
C        289.18770      -46.02542       60.16278
C        291.54052      -50.94770       64.63489
C        290.93392      -49.55922       64.43568
C        289.41717      -46.32909       62.76440
C        289.74669      -46.92194       64.13436
C        290.44133      -52.42192       57.32906
C        289.84019      -51.02167       57.25480
C        291.23656      -53.90637       59.67079
C        288.68106      -48.35713       57.16923
C        291.62073      -54.73873       60.89456
C        288.38046      -47.52163       58.41969
C        291.11338      -53.24247       63.49900
C        290.55452      -51.89168       63.95978
C        287.78806      -45.97074       60.83157
C        287.92670      -46.15310       62.39458
C        289.51449      -49.36907       64.99462
C        288.93911      -48.22089       64.16993
C        290.16168      -54.51277       58.74303
C        289.48716      -53.24715       58.21112
C        288.39828      -50.93955       56.77828
C        287.87295      -49.64249       57.38662
C        290.35032      -55.00586       61.75745
C        289.98592      -53.85787       62.69265
C        286.89465      -47.28673       58.74712
C        286.86169      -47.07059       60.26192
C        289.26643      -51.95036       64.78399
C        288.63324      -50.56568       64.63549
C        287.09554      -47.37256       62.86609
C        287.42456      -47.94936       64.24554
C        288.16984      -53.42657       57.47657
C        289.20362      -55.49094       59.46308
C        287.54941      -52.03043       57.43562
C        286.37323      -49.37949       57.27729
C        289.04850      -55.09019       60.93001
C        286.06730      -48.56810       58.52845
C        288.82414      -54.21957       63.64117
C        288.26386      -52.89494       64.13484
C        285.46643      -47.03770       60.93211
C        285.60294      -47.23210       62.49142
C        287.20525      -50.38829       65.16818
C        286.62237      -49.25823       64.31149
C        287.85039      -55.62369       58.70134
C        286.14009      -51.94700       56.87156
C        287.20700      -54.28868       58.28361
C        285.55101      -50.66099       57.46129
C        287.98335      -55.80678       61.76019
C        287.64525      -54.84387       62.89076
C        284.58814      -48.33145       58.83015
C        284.53087      -48.12366       60.34841
C        287.00570      -52.98066       64.99398
C        286.34561      -51.61197       64.83479
C        284.78536      -48.47230       62.94327
C        285.09456      -49.02606       64.33945
C        285.94083      -54.46835       57.39975
C        286.87006      -56.41104       59.56609
C        285.23938      -53.08680       57.34495
C        286.69158      -55.87983       60.98136
C        284.05653      -50.35905       57.24878
C        283.69028      -49.55592       58.53002
C        286.56628      -55.29287       63.88523
C        285.98260      -53.98579       64.45316
C        283.13565      -48.03101       61.01123
C        284.92475      -51.42461       65.37273
C        283.29464      -48.29516       62.56671
C        284.35654      -50.37508       64.40218
C        283.96708      -52.86425       56.51845
C        285.48737      -56.49426       58.96505
C        284.92662      -55.46746       57.97870
C        283.19558      -51.65975       57.16414
C        285.56743      -56.57412       61.79231
C        282.27987      -49.02377       58.77557
C        285.37751      -56.02662       63.22967
C        284.71117      -57.56405       56.48174
C        284.87788      -54.00558       65.51445
C        283.72944      -55.32416       55.68185
C        285.12158      -58.47433       57.68587
C        282.07887      -48.95837       60.31968
C        284.08815      -56.19706       56.90363
C        285.43451      -58.68391       60.18538
C        284.04769      -52.70521       65.31364
C        283.01908      -54.01726       56.12889
C        285.84659      -58.95502       62.69986
C        284.82490      -57.84414       59.04122
C        282.36308      -49.44244       63.03653
C        282.83576      -50.30687       64.22524
C        285.20994      -58.07835       61.60281
C        282.32470      -53.89140       53.61314
C        281.80575      -51.96829       55.08229
C        285.59826      -58.40719       64.20768
C        281.26996      -49.98868       56.61734
C        281.79067      -51.44198       56.52095
C        284.41035      -59.63661       55.08594
C        283.50381      -57.45314       54.30882
C        284.87689      -60.51432       56.26102
C        282.56490      -55.38255       53.43191
C        285.20910      -60.73902       58.73333
C        282.00271      -53.49640       55.06419
C        284.78613      -57.08910       64.19491
C        283.78113      -58.31100       55.52411
C        281.05264      -49.63319       58.09887
C        285.65687      -60.97070       61.17412
C        282.84433      -56.14297       54.71902
C        284.57071      -59.90115       57.62614
C        284.67569      -56.58276       65.70501
C        286.13598      -61.08435       64.44536
C        280.81352      -52.02364       52.81357
C        284.93473      -60.13425       60.11397
C        285.38861      -60.40798       62.63486
C        283.94731      -55.21653       65.72050
C        281.16807      -53.50228       52.68812
C        280.20328      -50.19135       54.35462
C        286.73623      -60.16058       68.00556
C        280.58263      -48.66933       60.73052
C        279.52623      -47.68006       57.22322
C        280.54824      -51.65928       54.27011
C        282.38334      -51.15446       66.68067
C        280.42107      -47.94794       62.12964
C        281.88549      -50.34659       65.44807
C        281.39824      -48.91565       65.85731
C        279.90750      -47.80223       59.64280
C        280.92133      -48.90396       63.26014
C        282.77972      -52.62805       66.24848
C        279.48811      -48.36643       55.82553
C        280.81278      -48.09415       64.62434
C        279.97287      -49.81581       55.80516
C        285.35610      -59.31888       66.17992
C        279.82320      -48.68453       58.33793
C        285.83076      -58.21512       69.26291
C        283.02179      -53.49615       67.50696
C        283.82467      -55.56998       69.03661
C        283.16017      -55.00582       67.12000
C        284.41497      -57.50273       67.56194
C        285.07159      -56.37158       70.54312
C        277.66172      -44.55566       59.60719
C        278.12786      -46.61325       57.75155
C        278.07154      -44.76541       62.08864
C        281.28818      -48.41701       69.39374
C        282.24587      -50.49336       70.38330
C        278.38814      -46.57763       60.23792
C        281.43927      -50.68620       68.30323
C        278.37289      -45.01376       64.51158
C        278.83154      -46.79299       62.66435
C        280.43349      -48.52946       67.43971
C        279.20542      -46.95910       65.15749
C        283.15404      -52.36266       71.71809
C        280.03430      -46.15442       68.53049
C        278.71190      -45.12974       67.11237
C        282.20836      -52.86242       69.26400
C        284.20477      -54.24010       71.99848
C         29.23503      -30.50128      -17.85273
C         32.17363      -30.39205      -17.18589
C         28.10342      -31.54587      -17.66644
C         33.64562      -30.03666      -16.95449
C         27.98240      -34.18804      -16.32321
C         29.82235      -30.09060      -16.49025
C         34.60408      -32.51128      -15.38169
C         31.21050      -29.44010      -16.46760
C         28.33910      -35.38280      -15.44095
C         27.80623      -31.73853      -16.17369
C         33.92187      -33.82706      -15.01615
C         33.99697      -30.01536      -15.45970
C         30.79848      -36.70872      -14.27424
C         27.23733      -33.04581      -15.60697
C         32.19288      -36.06346      -14.21352
C         33.76964      -31.38823      -14.79643
C         28.73288      -29.42985      -15.62081
C         31.61919      -29.32011      -14.98641
C         27.49014      -30.39710      -15.49490
C         33.11151      -28.96164      -14.78594
C         29.02647      -34.89780      -14.15754
C         33.53772      -33.99151      -13.51945
C         29.71020      -36.04235      -13.39599
C         32.19191      -34.73532      -13.45468
C         27.60057      -32.93518      -14.10588
C         29.30528      -29.08006      -14.22949
C         30.66523      -28.38132      -14.24709
C         33.96473      -31.40905      -13.27279
C         27.95424      -34.20149      -13.31869
C         27.09788      -30.56086      -14.02713
C         33.23729      -32.66136      -12.79675
C         33.46667      -28.88748      -13.29184
C         26.72558      -31.90376      -13.39552
C         30.25296      -35.59849      -11.99002
C         31.65792      -34.91958      -12.00561
C         33.21970      -30.24780      -12.61398
C         28.24767      -28.36343      -13.37755
C         31.09877      -28.21968      -12.78657
C         26.96241      -29.23916      -13.28001
C         32.58047      -27.82152      -12.64286
C         28.49855      -33.74913      -11.93249
C         33.00227      -32.83131      -11.27203
C         29.16231      -34.87256      -11.12072
C         31.68159      -33.60589      -11.16591
C         27.10419      -31.74890      -11.91954
C         28.81022      -27.99681      -11.99541
C         30.13826      -27.26961      -12.06860
C         33.43110      -30.24379      -11.08711
C         27.35197      -33.06013      -11.15745
C         26.27427      -29.33093      -11.91551
C         32.70483      -31.48462      -10.56046
C         32.94407      -27.69022      -11.16552
C         26.14673      -30.74350      -11.25564
C         29.68867      -34.30365       -9.73042
C         31.15673      -33.77122       -9.70239
C         32.70089      -29.03636      -10.45872
C         27.76264      -27.22110      -11.22359
C         30.57106      -27.00432      -10.62756
C         26.77514      -28.29778      -10.89990
C         32.04475      -26.58774      -10.56163
C         27.73259      -32.62411       -9.72103
C         32.53206      -31.58574       -9.01511
C         28.59660      -33.53495       -8.85370
C         31.28745      -32.46872       -8.81395
C         26.39562      -30.59105       -9.73997
C         28.28577      -26.70585       -9.85517
C         29.60285      -25.99776       -9.95563
C         32.89727      -28.95819       -8.94684
C         26.52879      -31.91886       -9.00146
C         25.76127      -28.05522       -9.84679
C         32.16084      -30.18985       -8.39174
C         32.40554      -26.34951       -9.11613
C         25.47186      -29.45190       -9.17419
C         29.10980      -32.50496       -7.76073
C         30.60841      -32.47357       -7.39299
C         32.19507      -27.67343       -8.36726
C         27.19595      -25.88494       -9.15868
C         30.00291      -25.59993       -8.52417
C         26.21441      -26.96246       -8.80513
C         31.48025      -25.19604       -8.55989
C         26.67841      -31.61611       -7.47633
C         32.03887      -30.17282       -6.85347
C         28.03825      -31.89310       -6.75799
C         30.90611      -31.17844       -6.47682
C         25.62971      -29.21866       -7.70209
C         27.62192      -25.15364       -7.82344
C         29.00706      -24.49433       -7.95920
C         32.45978      -27.48667       -6.90344
C         25.64026      -30.53990       -6.90930
C         25.05204      -26.57686       -7.95952
C         31.72077      -28.70189       -6.30231
C         31.88010      -24.80629       -7.17206
C         24.62845      -27.97678       -7.34711
C         28.46837      -30.59134       -5.97989
C         29.88780      -30.73792       -5.34096
C         31.85181      -26.09240       -6.33442
C         26.42335      -24.24855       -7.33669
C         29.39679      -23.73320       -6.63177
C         25.29476      -25.30511       -6.95021
C         24.91346      -19.05512       -6.83983
C         30.99260      -23.56460       -6.62730
C         22.62481      -20.96031       -6.95969
C         25.83915      -30.11442       -5.46145
C         23.19536      -19.39107       -6.73156
C         27.10931      -17.07768       -6.75453
C         25.47363      -21.77260       -6.60466
C         31.61652      -28.59109       -4.79805
C         27.71662      -19.78776       -6.33826
C         25.43898      -17.45698       -6.58832
C         20.87774      -21.20311       -6.82560
C         30.31854      -29.43897       -4.47214
C         20.29105      -22.76364       -6.91061
C         27.34813      -30.08321       -4.95492
C         23.72686      -22.13591       -6.40892
C         26.00347      -20.19868       -6.25503
C         24.47974      -27.67401       -5.93997
C         23.03961      -23.69156       -6.55873
C         26.71772      -22.91826       -6.41303
C         29.86364      -17.74353       -6.18980
C         28.18624      -18.17191       -6.08240
C         28.36465      -22.43179       -6.47840
C         32.35836      -25.80879       -4.95736
C         21.37810      -23.85751       -6.18570
C         18.55818      -22.94518       -6.74423
C         28.84982      -20.93095       -5.82387
C         24.76460      -28.94300       -5.10867
C         20.86671      -25.42507       -6.04159
C         18.06154      -24.53430       -6.69048
C         30.92982      -18.77605       -5.42562
C         24.03159      -24.93351       -6.08457
C         30.55052      -20.42430       -5.70557
C         31.58716      -27.01627       -4.29896
C         31.66089      -21.43037       -4.92696
C         31.60271      -23.04386       -5.30223
C         23.46673      -26.35422       -5.67038
C         27.63351      -28.75949       -4.16724
C         32.60290      -18.25738       -5.35061
C         19.20146      -25.58252       -5.80206
C         29.22613      -28.59871       -3.73344
C         32.25070      -24.19111       -4.40384
C         21.98742      -26.36671       -5.14788
C         33.59301      -19.22997       -4.44037
C         18.88996      -27.18994       -5.58354
C         34.00472      -21.92166       -3.60488
C         33.23694      -20.89914       -4.64286
C         21.80457      -27.82379       -4.55097
C         24.80886      -28.31878       -3.81571
C         31.30092      -26.74650       -2.89631
C         33.56721      -23.62033       -3.70330
C         26.37201      -28.48761       -3.14805
C         20.12433      -28.09858       -4.53327
C         35.23951      -18.68369       -4.24464
C         29.87006      -27.63911       -2.58326
C         33.84972      -24.61944       -2.49144
C         36.14171      -19.69783       -3.29440
C         23.16489      -28.38473       -3.43551
C         32.64058      -25.99977       -2.08285
C         20.03812      -29.70411       -4.30954
C         35.60652      -21.42404       -3.28794
C         23.17227      -29.88015       -2.97335
C         36.28629      -22.47961       -2.22235
C         35.41089      -24.11851       -1.95534
C         26.47413      -29.52354       -2.03036
C         21.47935      -30.44128       -3.24967
C         29.87211      -28.55224       -1.36724
C         24.79732      -30.30353       -2.02550
C         28.23269      -29.56433       -1.27344
C         31.58854      -28.36335       -0.72023
C         33.04768      -27.14781       -1.10112
C         21.55043      -32.04667       -3.02076
C         35.98986      -25.29606       -1.01693
C         34.74986      -26.74112       -0.60678
C         25.02740      -31.84334       -1.77100
C         23.24912      -32.59008       -2.07363
C         28.55786      -31.05943       -0.82758
C         26.84082      -32.06633       -0.93501
C         32.02443      -29.79280       -0.20244
C         35.30089      -28.07778        0.12007
C         33.85052      -29.45981        0.38826
C         30.40811      -30.99760       -0.11376
C          6.91640       41.31138      -14.79700
C          5.56370       42.01235      -14.87044
C          9.33302       42.71757      -13.77945
C         10.42254       43.53905      -13.08150
C          3.05258       43.51431      -14.58232
C          8.79343       41.48523      -12.99209
C          7.30537       41.33907      -13.33547
C          4.47721       41.47390      -13.88760
C          2.66947       44.86971      -13.99591
C          3.61676       42.66545      -13.44504
C         10.05854       46.35046      -11.94395
C          6.43379       40.33463      -12.54055
C          9.89689       43.86180      -11.70039
C          5.03571       40.95572      -12.54067
C          8.74932       41.71999      -11.47550
C         10.39192       45.15801      -11.01601
C          9.65322       47.64164      -11.21993
C          9.87913       42.55940      -10.87298
C          1.79431       47.34144      -12.84225
C          1.67875       44.73096      -12.80561
C          3.22093       47.61147      -12.38497
C          2.51115       42.35212      -12.38545
C          6.78324       40.30343      -11.04736
C          8.26038       40.46444      -10.69002
C          6.92719       48.80942      -11.22733
C          3.94262       40.31620      -11.61308
C          1.25272       46.07596      -12.14989
C          5.44685       49.15776      -11.19720
C          2.11658       43.69298      -11.73932
C          8.54606       47.27878      -10.23450
C          2.99921       41.45696      -11.21387
C          9.57594       45.18891       -9.71564
C          5.91843       39.28920      -10.21890
C          9.41475       42.82462       -9.45286
C          3.27145       47.82060      -10.85653
C          7.51930       48.35340       -9.87347
C          4.49143       39.84442      -10.23778
C          4.72050       48.03614      -10.45826
C          8.20457       40.72767       -9.18180
C          9.16780       46.51762       -9.07833
C         10.01571       44.06504       -8.79841
C          9.36938       41.52755       -8.61993
C          1.36966       46.15829      -10.57958
C          1.06827       43.54399      -10.57002
C          1.86947       41.08835      -10.16164
C          2.76949       46.55984      -10.09491
C          6.26463       39.31052       -8.70649
C          7.73821       39.49170       -8.36185
C          6.49466       47.63160       -8.93394
C          3.42691       39.15657       -9.28718
C          0.84942       44.89015       -9.80794
C          5.05109       48.14029       -8.95526
C          1.42205       42.41079       -9.52493
C          8.14273       46.13840       -7.98666
C          2.37727       40.22726       -8.94848
C          9.32824       44.12100       -7.45872
C          5.45204       38.30297       -7.81749
C          8.98206       41.83144       -7.17209
C          7.14383       47.22838       -7.59477
C          2.76560       46.83663       -8.54104
C          3.99180       38.76581       -7.87380
C          7.73783       39.79534       -6.84686
C          4.11109       47.33606       -7.97262
C          8.91792       45.45633       -6.85704
C          9.82179       42.97125       -6.61572
C          1.31626       44.75075       -8.28404
C          8.97527       40.53996       -6.37200
C          0.49820       42.33240       -8.19616
C          1.28409       39.83688       -7.83764
C          4.74492       46.35902       -6.93431
C          1.88178       45.95543       -7.53493
C          7.30876       38.58646       -5.97877
C          5.82116       38.39732       -6.28931
C          2.98773       38.01084       -6.90350
C          6.14895       46.75542       -6.47492
C          0.54640       43.68269       -7.38731
C          0.83549       41.15469       -7.17912
C          1.82213       38.97844       -6.61777
C          8.12107       45.27443       -5.54776
C          9.61314       43.21115       -5.14056
C          6.62952       45.52788       -5.64716
C          5.10382       37.34553       -5.39432
C          8.79272       40.81991       -4.89005
C          2.59802       45.35531       -6.21074
C          3.57790       37.67560       -5.46320
C          8.26682       43.87541       -4.88758
C          3.81587       46.09683       -5.67196
C          7.49540       38.85867       -4.42947
C          9.77847       41.86963       -4.40327
C          8.88038       39.46887       -4.17195
C          1.08583       43.45281       -5.84221
C          0.05216       41.11299       -5.73137
C          0.75784       38.54523       -5.48499
C          1.71658       44.63511       -5.08199
C          7.17215       37.60247       -3.62173
C          4.50171       45.18506       -4.52166
C          5.59764       37.36962       -3.87055
C          5.96530       45.48352       -4.24676
C          2.61850       36.78635       -4.55885
C          0.32982       42.41508       -4.87373
C          0.27638       39.84322       -4.77726
C          8.03808       44.08724       -3.41172
C          1.28284       37.58506       -4.32140
C          9.52802       39.54249       -2.73811
C          6.55562       44.34800       -3.29204
C          9.64222       42.12726       -2.92597
C          4.91461       36.20525       -3.10467
C          2.51952       44.03925       -3.73494
C          3.23192       36.32486       -3.14939
C          8.41607       42.86015       -2.52759
C          3.71884       44.86099       -3.18608
C          7.72251       37.63952       -2.08410
C          9.61401       40.89724       -2.05168
C          9.16001       38.49552       -1.71484
C          0.97489       42.10801       -3.33522
C         -0.29918       39.81030       -3.21865
C          0.21790       37.11612       -3.19118
C          7.63736       36.13904       -1.58888
C          5.84868       35.47302       -1.96389
C          1.74434       43.27289       -2.55809
C          2.21014       35.31719       -2.34137
C          6.13087       44.43393       -1.81532
C          4.62028       44.05826       -1.99510
C          0.19638       41.08078       -2.34577
C         -0.37415       38.38971       -2.39782
C          4.93338       33.98648       -1.87815
C          8.60045       43.29652       -1.06255
C          0.49580       35.72366       -2.36829
C          5.72038       29.99684       -3.15185
C         10.44473       41.22466       -0.77704
C         10.28540       38.55090       -0.41989
C          7.09381       43.51126       -0.76155
C          7.62308       30.22604       -3.36953
C          2.78343       28.41558       -3.47086
C          8.15909       32.97296       -2.10568
C          4.59150       28.69117       -3.81197
C          2.98599       33.86159       -2.08007
C          2.66226       42.78125       -1.16620
C         10.84823       31.59796       -2.85384
C          2.85008       31.13534       -2.49556
C          9.40063       35.81477       -1.04693
C          9.59508       42.31785       -0.05410
C         11.71896       34.27745       -1.46862
C          3.98860       43.65402       -0.61639
C          6.05782       32.71990       -2.17161
C         11.22452       40.05135        0.01965
C         14.15588       32.76976       -2.31645
C          8.89779       31.52380       -2.71884
C          4.82486       31.35695       -2.65936
C         -0.01821       29.44964       -2.70035
C          9.74732       34.23581       -1.52519
C          0.71951       40.82946       -0.73604
C         10.90972       37.05756       -0.47775
C          1.81008       29.76001       -3.05575
C         -0.89265       35.25019       -1.39968
C          1.79054       32.47442       -2.13361
C         12.24912       32.81535       -2.20138
C         -0.19999       32.27722       -1.86543
C         -0.97576       38.27104       -0.84218
C         13.22899       35.54233       -0.80619
C         15.55817       33.96181       -1.70272
C          1.88057       41.99436        0.00200
C          6.91002       43.60837        0.74859
C          5.16931       43.23715        0.70098
C         -2.88389       30.28827       -1.77988
C         -1.09767       30.73429       -2.23468
C         -0.24636       39.68055        0.12182
C         12.85247       37.13136       -0.13538
C         -1.45245       33.54966       -1.39222
C         -1.72258       36.58794       -0.57995
C         15.13285       35.41995       -0.84777
C         -3.99755       31.49413       -1.15049
C         10.20953       42.88780        1.34082
C         14.44850       38.41757        0.62545
C         12.55195       40.79142        1.14892
C         16.64295       36.57476       -0.18366
C          8.53104       43.43398        1.80215
C          2.65029       42.11510        1.65156
C         -3.18541       33.13845       -0.80713
C         14.33257       40.15668        1.35178
C          4.56022       43.03408        2.17206
C         12.09262       42.37198        1.88880
C         -4.10294       34.42213        0.08611
C         -5.68719       30.86333       -0.59932
C         16.36845       38.09468        0.67412
C         15.95529       41.14458        2.20355
C         -0.44099       40.15133        1.80146
C         18.03860       39.10493        1.40145
C         -3.18262       36.16625        0.41052
C         -6.69295       32.02580        0.25630
C          1.14163       41.50012        2.56288
C         -3.55226       37.47032        1.73323
C          8.45846       44.02528        3.32184
C         15.66027       42.73211        3.07167
C         17.89909       40.66545        2.25631
C          6.26532       43.73520        3.38551
C         -5.80122       33.78428        0.67293
C         13.59018       43.19559        2.97836
C         19.71227       41.48080        2.99386
C         -2.16941       39.20362        2.36535
C         -6.54989       34.99426        1.77213
C         -2.48651       40.29247        3.81547
C         12.94697       44.51254        4.10141