876
	Energy:   12630.2127437
C         -1.35098       -0.25479        1.39236
C         -0.42146        0.95851        1.21522
C         -0.63607        1.82747        2.51504
C         -1.43927        2.92505        2.47466
C         -2.12561        3.34843        1.12876
C         -3.59433        2.91346        1.27676
C         -4.23819        3.32828        2.73584
C         -5.71617        2.91882        2.90149
C         -6.27209        2.18701        1.55866
C         -5.95702        0.70653        1.64430
C         -5.56672        0.10203        3.03289
C         -4.75321       -0.96775        3.05858
C         -4.27605       -1.57543        1.68493
C         -3.00454       -2.43963        1.73331
C         -2.15481       -2.12355        3.09043
C         -1.22689       -0.91214        2.89636
C         -1.26638        0.05716        4.19247
C         -0.27412        1.19213        3.91656
C         -0.23392        2.12576        5.16138
C         -1.16352        3.35212        5.11634
C         -1.98892        3.54883        3.82280
C         -3.40647        3.01156        4.07673
C         -4.06286        3.37592        5.57119
C         -5.47019        2.80882        5.78306
C         -6.06334        2.24358        4.37710
C         -6.10901        0.70600        4.36398
C         -5.74913        0.04334        5.74917
C         -4.94784       -1.02873        5.78868
C         -4.38167       -1.61016        4.44125
C         -2.93961       -2.12537        4.54398
C         -2.23537       -1.68694        5.95609
C         -1.19527       -0.58717        5.72878
C         -1.14762        0.39491        6.99616
C         -0.09162        1.45464        6.59519
C         -1.82627        3.77577        6.49722
C         -3.18844        3.15037        6.88592
C         -3.79743        3.11500        8.46469
C         -5.09758        2.44668        8.66380
C         -5.83607        2.09579        7.26382
C         -6.30541        0.62493        7.08994
C         -6.32494       -0.28536        8.39021
C         -5.51657       -1.37417        8.43287
C         -4.59940       -1.67859        7.17799
C         -3.06387       -1.69274        7.41681
C         -2.52233       -1.03966        8.81021
C         -1.44447       -0.05675        8.59999
C         -7.92402       -5.14604       14.21602
C         -8.93544       -4.56365       13.55489
C         -8.58607       -3.48092       12.47134
C         -9.38352       -2.39118       12.43293
C        -10.55313       -2.34307       13.47934
C        -10.80102       -1.17534       14.09246
C         -9.90771        0.10329       13.68375
C         -9.09784        0.58100       14.91764
C         -9.49608       -0.26277       16.26273
C         -8.49766       -0.78186       17.01657
C         -7.03875       -0.58512       16.50517
C         -6.23826       -1.68407       16.55057
C         -6.89949       -2.99198       17.09483
C         -6.70343       -4.13185       16.38856
C         -5.73136       -4.06451       15.07231
C         -6.41308       -4.70766       13.83415
C         -6.06954       -3.86367       12.44607
C         -7.26671       -3.50698       11.58290
C         -6.89831       -2.30657       10.61079
C         -7.69342       -1.22686       10.57161
C         -8.97769       -1.17075       11.50254
C         -9.00549        0.13119       12.29090
C         -7.84338        1.23049       11.89061
C         -7.08410        1.69311       13.13765
C         -7.54174        0.76476       14.46484
C         -6.60039        0.68077       15.66025
C         -5.19392        0.70198       15.03069
C         -4.39213       -0.38412       15.08952
C         -4.86648       -1.68751       15.76479
C         -5.02710       -2.66157       14.60352
C         -3.97937       -2.53562       13.28644
C         -4.63747       -3.14227       12.04499
C         -4.28663       -2.44803       10.55240
C         -5.59386       -2.32102        9.70283
C         -7.29548       -0.02398        9.61499
C         -7.06253        1.30518       10.40007
C         -5.66096        2.10837       10.08553
C         -4.91952        2.47301       11.29972
C         -5.52044        1.86944       12.75848
C         -4.77922        1.91159       14.12606
C         -3.07590       -0.40440       14.24925
C         -3.32024       -1.10427       12.88576
C         -2.50375       -0.74527       11.44153
C         -3.06082       -1.38927       10.23394
C          3.54517        3.46895       14.43874
C          2.81974        3.88357       15.48653
C          1.31380        3.84816       15.37859
C          0.78594        4.98837       14.47857
C          0.84718        6.38232       15.04871
C          0.19486        7.38472       14.43337
C         -0.65799        7.13515       13.19522
C          0.07221        7.28351       11.84223
C          1.47853        7.87124       11.91305
C          2.51312        7.38551       11.20225
C          2.36459        6.23922       10.22281
C          2.86207        4.94319       10.86166
C          4.31296        4.88547       11.26809
C          4.73155        3.71293       11.79237
C          3.70369        2.59785       12.03965
C          2.80248        3.05486       13.18389
C          1.62757        2.08280       13.45504
C          0.91484        2.45639       14.78862
C         -0.60604        2.26567       14.72451
C         -1.39570        3.57462       14.43626
C         -0.53193        4.64094       13.75629
C         -1.43564        5.79602       13.34518
C         -2.27430        5.29642       12.10235
C         -1.53844        5.54787       10.76689
C         -0.02989        5.98797       11.02693
C          0.87410        6.06655        9.80175
C          0.59170        4.78954        9.08820
C          1.39747        3.70584        9.17131
C          2.64583        3.71341        9.96828
C          2.79827        2.39002       10.77404
C          1.46443        1.51874       10.99892
C          0.67400        1.95875       12.20994
C         -0.57967        1.00993       12.41919
C         -1.05498        1.03498       13.88680
C         -2.52403        0.93781       14.00602
C         -3.31628        2.01483       13.92460
C         -2.76729        3.37196       13.69998
C         -2.68679        3.76986       12.21620
C         -3.65333        3.25609       11.07611
C         -3.10747        3.57116        9.71772
C         -1.68586        4.31806        9.78266
C         -0.81344        4.64167        8.56198
C         -0.86691        3.57401        7.56951
C         -0.05683        2.50800        7.61118
C          0.95781        2.35653        8.64196
C          0.42849        1.53504        9.82410
C         -0.80606        0.51270        9.84481
C         -1.33054        0.20811       11.22359
C        -12.08999       -2.00409      -11.75575
C        -11.39333       -2.01585      -13.13355
C        -13.03882       -3.30211      -11.66666
C        -12.09806       -2.95982      -14.24445
C        -11.08344       -1.62463      -10.49401
C         -9.80057       -1.83201      -13.03638
C         -9.75741       -0.61204      -10.65938
C         -9.16147       -0.63825      -12.06939
C        -12.63491       -4.28153      -10.83587
C        -11.36484       -3.38130      -15.30045
C         -8.65347       -0.32940       -9.43230
C         -7.56680       -0.29177      -12.10235
C         -7.19361        0.43780       -9.55689
C         -6.66134        0.52751      -10.92967
C        -10.65773       -2.92333       -9.80671
C         -9.23175       -1.82680      -14.45577
C         -6.38798        0.99815       -8.34909
C        -11.44824       -4.22634      -10.21234
C         -5.32021        1.25125      -11.10028
C         -6.31868        1.89980       -5.55577
C         -6.11239        2.45342       -2.70078
C         -6.90295        0.94020       -6.80377
C         -9.82190       -3.00182      -15.37674
C         -6.64027        1.57295       -3.98617
C         -5.05359        1.61494       -8.50597
C         -3.83144        2.84564      -12.73317
C         -4.54320        1.46203      -12.50442
C         -4.53667        1.76332       -9.92178
C         -4.91759        2.50156       -5.70603
C         -8.73845       -1.49676       -8.41058
C         -4.66896        2.99969       -2.88461
C         -6.22963        1.85842       -1.21439
C         -2.24808        4.29676      -14.33454
C         -7.15294       -0.43745      -13.59648
C         -2.69131        2.82668      -11.74595
C         -3.11231        3.02831      -14.12472
C         -9.31079       -2.83454       -9.02155
C         -1.10038        4.06323      -13.38144
C         -4.23963        1.97356       -7.07117
C         -7.71275       -1.73778      -14.23672
C         -3.10419        2.43061      -10.28749
C         -4.04789        2.44793       -4.27042
C         -7.36105       -0.45492       -6.27154
C         -1.71913        4.46295      -15.75683
C         -3.78553        2.80474       -1.50419
C         -5.14834        0.99962      -13.83034
C         -1.57154        3.93799      -11.92026
C         -6.72310        0.08484       -3.69124
C         -7.58678       -1.57879       -7.34627
C        -10.71735       -5.34891       -9.97663
C         -6.13987        0.51356       -1.07507
C         -8.94869       -4.28137      -15.42697
C         -5.69560       -0.35195      -13.69272
C          0.15155        4.89969      -13.57378
C         -3.55490        2.29444      -15.38785
C         -6.58923       -0.80856       -4.96405
C        -11.23673       -6.55544      -10.80061
C         -9.87288       -5.57216      -15.41543
C         -1.78836        3.49502      -16.68209
C         -6.02837       -0.33107       -2.35597
C         -4.12015        0.91923      -14.99078
C         -8.59904       -3.95139       -8.91183
C         -2.77944        2.48714       -6.97645
C         -6.93261       -2.85225      -14.26944
C         -1.99056        2.83998       -9.30227
C         -2.54843        2.80449       -4.35439
C         -9.20006       -5.26208       -9.55349
C         -2.30122        2.13302      -16.30985
C         -7.55824       -4.22669      -14.58767
C         -2.29768        3.13165       -1.66678
C         -0.36669        3.34717      -11.25305
C         -6.81018       -2.69177       -7.30677
C         -1.99834        2.00267       -8.11271
C         -4.91506       -1.44152      -13.67308
C          1.19007        4.73053      -12.74056
C         -2.11884        2.08506       -5.62792
C        -10.44641       -6.93638      -11.82911
C         -7.14475       -3.86820       -8.31180
C         -9.69982       -6.48732      -14.43721
C         -5.75186       -1.84936       -4.94892
C         -0.51844        2.91389       -9.83231
C         -5.50244       -2.79108      -13.60788
C         -1.86629        2.38837       -2.99095
C         -5.17857       -1.38245       -2.34146
C         -3.04969       -0.20647      -14.79433
C          1.05575        3.85363      -11.51176
C         -8.28278       -5.78506      -10.66423
C         -5.68567       -2.78696       -6.20100
C         -7.69556       -4.85754      -13.21369
C         -9.11925       -6.49003      -11.90624
C         -1.17973        1.37210      -15.55814
C         -8.55069       -6.24225      -13.30053
C         -3.44174       -1.33771      -13.76960
C         -4.88069       -2.06789       -3.69146
C         -1.24395        0.89830       -8.03301
C         -6.07825       -4.19382       -9.41718
C         -6.89634       -4.87533      -10.74054
C         -4.42959       -1.71751       -0.99535
C         -5.54143       -3.25434      -12.11537
C         -6.39176       -4.65076      -12.14904
C         -1.36268        0.96923       -5.57305
C         -1.69090        0.39429      -14.48894
C          0.39837        1.67484       -9.57893
C         -1.10080        1.26636       -2.94604
C         -1.17949        0.10212       -6.84343
C          0.04907        0.92127      -16.30425
C         -4.79369       -3.15634       -9.49503
C         -4.47045       -2.73213      -10.87920
C         -0.38738        0.42771       -9.10915
C         -4.24607       -2.98601       -6.68213
C          2.06179        2.67596      -11.30487
C         -0.89764        0.39494       -4.25330
C         -2.74847       -1.19115      -12.38617
C         -3.97037       -2.62037       -8.25741
C         -3.26759       -1.80629      -11.00817
C          1.38798        1.37038      -10.72028
C         -3.67825       -2.67453       -3.83862
C         -0.63766        0.67480       -1.56865
C         -2.85558       -1.67074       -8.40174
C         -2.48253       -1.29601       -9.81886
C         -2.22096       -1.03999       -6.95376
C         -3.18160       -2.85606       -5.37064
C         -3.25108       -2.67904       -1.05070
C         -0.73905       -0.68672      -14.01873
C         -1.23986       -0.30739      -10.15590
C          2.90818        2.31908      -12.50428
C         -1.18335       -1.07187      -12.55933
C         -2.04525       -1.80880       -5.54929
C         -1.75833       -0.87897       -4.15207
C         -2.65505       -2.66609       -2.56139
C          0.95157        0.16118      -15.65530
C         -0.76346        0.03119      -11.60236
C          0.76518        0.40817      -11.78375
C         -1.52605       -0.56515       -1.37571
C         -1.58393       -1.55193       -2.70048
C          0.73748       -0.24968      -14.20115
C          2.44652        1.43525      -13.39638
C          1.04887        0.88551      -13.22795
C         -1.54155        2.82711       -0.28122
C         -0.64294        1.60268       -0.24391
C         -5.89227       -0.14658        0.32321
C         -4.54738       -0.82303        0.30454
C         -4.42677        3.25485       -0.06367
C         -5.89955        2.75008        0.06902
C         -1.32638       -1.22906        0.08767
C         -2.27629       -2.45049        0.26167
C        -37.99145      -18.75767       20.82590
C        -37.57400      -18.22831       19.45142
C        -39.45991      -19.78365       18.67111
C        -38.47472      -18.68164       18.28070
C        -37.12872      -19.31755       21.69415
C        -36.10138      -18.47340       19.10889
C        -35.63242      -17.63375       17.84764
C        -37.70905      -18.96347       16.94130
C        -39.35876      -21.05205       18.24964
C        -36.45716      -18.02825       16.60217
C        -35.23693      -18.34321       20.36043
C        -35.64503      -19.41334       21.41049
C        -16.77630       -4.60615       28.06478
C        -34.06751      -17.68983       17.57687
C        -17.20296       -6.04372       28.34863
C        -15.76442       -4.11365       29.10394
C        -35.49487      -18.62204       15.48906
C        -17.59263       -6.37927       29.77493
C        -37.25087      -20.40857       16.83819
C        -33.52140      -17.13998       16.17337
C        -38.26608      -21.45292       17.30196
C        -18.14714       -6.60311       27.27221
C        -34.31496      -17.66739       15.01403
C        -17.50279       -6.50800       25.84009
C        -33.37955      -17.41872       18.92326
C        -16.91309       -5.17645       25.46577
C        -16.06399       -4.63418       26.68647
C        -33.85293      -18.51264       19.83987
C        -32.28926      -16.28489       15.98624
C        -31.14565      -15.82599       17.15639
C        -26.05459      -11.32678       19.27092
C        -28.17075      -12.88549       18.23440
C        -30.31317      -14.45260       17.16560
C        -28.96411      -14.29642       18.14433
C        -23.83849       -9.80631       20.22116
C        -35.28853      -20.79164       20.85541
C        -26.81767      -12.75884       19.17045
C        -33.95458      -17.38476       13.57970
C        -18.27070       -7.19004       24.65338
C        -24.70630      -11.22290       20.18741
C        -21.46801       -8.39555       21.11570
C        -18.01176       -6.80147       23.09837
C        -35.57971      -21.98875       21.72060
C        -14.51709       -4.62714       29.15507
C        -22.47399       -9.75342       21.08989
C        -18.06102       -7.60416       30.07103
C        -36.31813      -19.52746       14.56640
C        -18.86394       -7.29549       21.94770
C        -16.81299       -5.92523       22.86822
C        -16.03850       -5.57161       24.21991
C        -27.99812      -12.25899       16.84096
C        -31.27322      -16.16105       18.66298
C        -25.78466      -10.73340       17.85456
C        -20.13382       -8.41017       22.02453
C        -30.07110      -13.97865       15.73205
C        -31.98190      -15.91579       14.59384
C        -16.35642       -5.51167       21.48703
C        -18.49059       -6.81870       20.59422
C        -36.96135      -20.70569       15.36235
C        -23.55877       -9.27498       18.78778
C        -14.70496       -3.67405       19.88208
C        -21.09538       -7.93000       19.70401
C        -17.21546       -5.92895       20.35946
C        -34.62828      -18.06950       12.18054
C        -31.92092      -17.45861       18.81498
C        -32.80875      -16.47801       13.38644
C        -12.89094       -2.10581       18.27629
C        -18.14060       -8.07649       27.55494
C        -29.14685      -14.77535       19.59255
C        -14.91170       -4.72959       21.08333
C        -15.52542       -4.14581       18.68183
C        -14.82819       -5.52146       26.78531
C        -37.93317      -22.92850       16.97713
C        -13.14435       -3.23435       19.40995
C        -34.78904      -17.32207       10.75639
C        -13.68327       -2.53515       17.01083
C        -27.02888      -13.36895       20.56776
C        -19.52976       -7.33526       19.42428
C        -26.51489      -11.58598       16.66496
C        -28.64758      -13.17156       15.61861
C        -19.21827       -8.27621       25.19751
C        -11.37267       -1.60478       17.91228
C        -30.70240      -14.90309       14.47764
C        -24.23321      -10.30249       17.74434
C        -24.84628      -11.89561       21.55679
C        -33.19094      -19.69324       19.87474
C        -38.01366      -23.84464       18.17192
C        -29.96180      -16.10241       19.56598
C        -16.67020       -5.37795       18.90115
C        -22.00531       -8.71669       18.58340
C        -20.58879       -9.13551       23.31635
C        -22.68630      -10.48919       22.43046
C        -14.71951       -3.81934       17.28445
C        -33.54597      -16.44866       10.52607
C        -33.80360      -20.90935       20.46590
C        -18.36590       -8.60709       28.97474
C        -14.63567       -4.94957       24.33303
C        -35.68453      -19.21469       12.14027
C        -35.16867      -18.20156        9.35930
C        -32.49597      -16.18308       11.81079
C        -14.16847       -5.69809       28.15793
C        -12.69016       -2.49003       15.74747
C        -35.58731      -20.02476       13.37513
C        -18.89409       -8.93279       26.58107
C        -27.72853      -14.75902       20.30473
C        -35.21715      -23.18258       21.20727
C        -35.30564      -17.51151        7.88946
C        -25.66314      -13.28660       21.43161
C        -13.79500       -4.36251       22.09502
C        -23.37979      -11.88053       22.13596
C        -19.45786       -9.32629       24.22030
C        -13.86774       -5.27727       25.66103
C        -21.27780      -10.49432       23.00305
C        -36.32643      -22.10861       15.13783
C        -12.10396       -3.11240       20.51083
C        -31.22542      -18.60334       18.88188
C        -36.50349      -23.04961       16.33657
C        -34.05075      -16.63770        7.65303
C        -35.73051      -18.36776        6.55867
C        -36.98606      -23.89767       19.02361
C        -33.06403      -16.60619        8.97403
C        -10.34005       -2.04767       18.66266
C        -36.02031      -19.46188        9.47157
C        -13.80510       -5.31042       23.20146
C        -31.89544      -19.89052       19.10185
C        -16.56232       -6.43135       17.74179
C        -35.56303      -20.06717       10.82083
C        -18.89530       -8.00573       18.15193
C        -29.57913      -15.30314       13.48400
C        -25.55028      -12.55225       15.99553
C        -27.59651      -13.94313       14.80226
C        -23.40040      -11.11367       17.05018
C        -34.65809      -23.24434       19.77673
C        -12.40209       -4.30860       21.41468
C        -21.17512       -9.54266       17.61506
C        -33.55871      -22.14438       19.55553
C        -14.53044       -5.02914       16.37487
C        -29.14184      -17.40335       19.62320
C        -35.80785      -22.97279       18.80639
C        -17.82069      -10.07201       29.08818
C        -31.01170      -16.31354       11.35235
C        -12.43001       -3.64842       15.12123
C        -10.62709       -2.96521       19.91188
C        -12.76233       -6.34494       28.11813
C        -34.92012      -21.18641       13.39197
C        -33.44450      -16.91900        6.20217
C        -36.02588      -19.68055        6.69399
C        -26.98953      -15.90098       20.33843
C        -35.31256      -22.94211       17.34004
C        -17.30380       -7.84026       17.99751
C        -34.87174      -22.04649       14.59227
C        -29.75500      -18.62602       18.79257
C        -15.11797       -6.36557       17.05022
C        -24.80369      -14.53783       21.38807
C        -18.27180      -10.36488       26.55824
C        -28.17244      -15.27342       14.17783
C        -23.98540      -12.37129       16.28220
C        -26.17333      -13.90567       15.47068
C        -35.81345      -20.29289        8.12416
C        -29.92120      -16.46256       12.47518
C        -21.86524      -10.93956       17.30365
C        -19.60905       -9.40963       17.89450
C        -22.62657      -13.01092       22.14250
C        -12.82475       -6.44755       25.57583
C        -18.75315      -10.46535       24.23260
C        -20.53932      -11.62362       23.01408
C        -13.09718       -4.96924       15.67510
C        -33.12048      -21.86626       18.03115
C        -16.76569      -10.29814       30.14768
C        -31.57373      -16.72613        8.72068
C        -32.25656      -20.57506       17.77343
C        -12.59788       -7.17171       29.36212
C        -34.30272      -21.75100       17.09237
C        -27.58578      -17.22769       19.69627
C        -17.29081      -10.63904       27.70995
C        -13.04464       -6.40905       23.20658
C        -34.86753      -21.22516       10.85287
C        -12.63810       -7.26757       26.85930
C        -30.86113      -17.16668       10.04450
C        -25.43506      -15.81936       20.64345
C        -33.79569      -21.57709       15.60014
C        -17.69152      -10.74676       25.17598
C        -23.20729      -14.35446       21.57651
C        -11.62436       -5.42353       21.42774
C        -34.20516      -21.67378       12.20570
C        -21.07898      -12.92685       22.47273
C        -19.02924      -11.54659       23.33708
C        -12.99423       -7.34148       24.32502
C        -32.15929      -17.30225        6.11652
C        -31.55726      -20.36117       16.34268
C         -9.74694       -4.22568       19.93254
C        -15.49029      -10.01809       29.86092
C        -29.34043      -18.74514       17.30244
C        -32.37075      -20.90284       15.18476
C        -27.46221      -16.40515       14.24636
C        -13.08500       -8.42006       29.42274
C        -25.45633      -15.03916       15.57604
C        -12.15284       -6.71417       22.12120
C        -14.35151       -7.46649       17.08319
C        -35.10259      -21.45240        8.15415
C        -29.20661      -17.61168       12.53033
C        -31.37029      -17.57010        7.42063
C        -16.54131       -8.96627       18.05366
C        -21.14311      -12.07227       17.44600
C        -18.89105      -10.52908       18.03353
C        -23.48866      -13.60901       16.97215
C        -30.23867      -19.62262       16.14515
C        -15.83482      -10.20117       27.33818
C        -34.49335      -21.95699        9.54022
C        -12.31529       -6.07080       15.70535
C        -10.38416       -5.55894       20.55646
C        -13.76139       -8.29510       26.93844
C        -27.02190      -17.35517       18.27772
C        -16.41342      -10.02985       24.72383
C        -28.06261      -17.72456       13.60909
C        -15.19580       -9.41284       28.51110
C        -31.89065      -20.77596       13.73935
C        -26.05720      -16.37785       14.96719
C        -13.73599       -9.12727       28.23712
C        -30.15302      -18.30717       10.08810
C        -24.73942      -15.97212       19.28065
C        -14.23350       -8.25075       24.32835
C        -14.94363       -8.77949       17.81666
C        -19.68295      -11.90066       17.99726
C        -17.31735      -10.37986       18.29622
C        -32.72821      -21.18609       12.29959
C        -24.00942      -14.94553       16.22748
C        -27.72890      -18.55632       17.34329
C        -15.66668       -9.43294       25.95399
C        -21.91249      -13.47011       17.24110
C         -8.74865       -4.28598       18.71967
C        -22.49058      -14.53810       20.22862
C        -14.22066       -9.08379       25.65552
C        -18.13579      -11.39785       22.08256
C        -20.26305      -13.07903       21.17253
C        -29.50955      -18.73635       11.45828
C        -12.87228       -7.38128       16.43994
C        -15.92872       -9.88177       23.18675
C        -29.72726      -19.56930       14.76148
C        -25.39694      -17.20507       18.40106
C        -14.72158       -8.99951       22.97536
C        -30.56004      -20.14388       13.55303
C        -16.64901      -10.56199       22.03232
C        -28.24046      -18.84856       14.66397
C        -12.87756       -7.67346       21.14863
C        -10.83004       -5.88433       15.18559
C        -34.61466      -21.96918        6.74983
C        -27.15251      -18.59605       15.92963
C        -20.84217      -14.31587       20.31337
C        -18.60683      -12.64890       21.17505
C        -23.10585      -15.79940       19.40405
C        -14.11867       -8.76739       21.58799
C        -25.80533      -17.63399       15.80903
C        -30.65672      -18.72030        7.45297
C        -16.91606      -11.20582       19.53971
C        -16.05131      -10.39166       20.69289
C        -19.20258      -12.93112       18.73489
C        -30.10267      -20.08572       11.97344
C        -14.76610       -9.49106       20.46351
C        -23.48865      -16.26164       16.83352
C        -24.71778      -17.35348       17.03127
C        -30.03367      -19.21353        8.80398
C        -17.98720      -12.53117       19.75174
C        -21.24927      -14.72940       17.77709
C        -32.98063      -21.75745        9.46553
C        -14.01519       -9.19252       19.01172
C        -10.81735       -6.54298       19.48379
C        -32.07270      -21.71435       10.90748
C        -20.16279      -14.27577       18.91880
C        -22.39191      -15.93070       18.02939
C        -11.77446       -7.85901       19.98126
C        -11.81669       -7.93582       17.39049
C        -12.44677       -8.54439       18.79509
C         -8.64107       -5.43458       18.01678
C        -30.73877      -20.98951       10.69083
C         -9.62525       -6.70364       18.39679
C        -30.60710      -20.58498        9.10073
C         -9.83535       -6.48378       15.85738
C        -30.73738      -19.59902        6.17092
C        -10.24820       -7.36970       17.13980
C        -33.30268      -22.28730        6.65342
C        -32.38287      -22.23553        8.01512
C        -31.03574      -21.51171        7.78337
C        -30.97491      -20.90914        6.28610
C        -33.65310      -17.20211        3.43495
C        -34.45955      -17.21681        2.05604
C        -35.94158      -18.65171        3.73231
C        -35.73792      -18.08967        2.20916
C        -32.34253      -17.47960        3.39769
C        -33.67734      -17.60011        0.65394
C        -34.43032      -17.56920       -0.80156
C        -35.80977      -19.08078        0.91956
C        -36.32230      -19.93441        3.90909
C        -35.69806      -18.43500       -0.63668
C        -32.20618      -17.28612        0.63776
C        -31.59801      -17.73164        2.03722
C        -15.82330       -5.03928      -15.06987
C        -33.57224      -17.85727       -2.21689
C        -16.33229       -5.25034      -13.62458
C        -14.30891       -4.45062      -15.21743
C        -35.83859      -19.39403       -1.92412
C        -15.15799       -4.89368      -12.59703
C        -36.84745      -20.14214        1.17012
C        -34.24492      -18.10851       -3.70583
C        -36.64672      -20.83123        2.62700
C        -17.16547       -6.68924      -13.53601
C        -35.48573      -18.91175       -3.52708
C        -18.46987       -6.96933      -14.49114
C        -32.12049      -17.33342       -2.06916
C        -18.00754       -6.64274      -15.92579
C        -16.37115       -6.22972      -16.00478
C        -31.61482      -17.88501       -0.68816
C        -33.68489      -17.75032       -5.15064
C        -32.23145      -17.06200       -5.60319
C        -28.30530      -13.35726      -10.40766
C        -30.16777      -14.69168       -8.72030
C        -31.97921      -16.07980       -6.94069
C        -30.44872      -15.74415       -7.46610
C        -26.39561      -11.99330      -11.96642
C        -30.79529      -19.02401        2.06421
C        -28.61642      -14.43329       -9.21276
C        -36.19240      -19.34400       -4.79727
C        -19.42675       -8.35708      -14.35080
C        -26.74442      -13.12716      -10.85099
C        -24.30635      -10.62341      -13.52667
C        -20.61400       -8.81226      -15.42958
C        -30.92908      -19.79691        3.43259